# LAMMPS data file written by OVITO Basic 3.7.11
3998 atoms
2 atom types
0.0 48.4282885418 xlo xhi
0.0 30.8572093325 ylo yhi
0.0 29.396923244 zlo zhi

Atoms  # atomic

3919 1 1.91765 1.53778 1.37143
3070 2 3.94348 4.62091 7.47231
3928 2 0.0428924 1.53647 4.34687
3075 2 8.14018 4.62204 7.20351
3930 2 3.94721 1.53562 1.59266
3932 2 1.97392 -0.00418862 0.150413
3941 1 1.08538 3.07674 4.39859
3949 2 2.10244 3.07731 2.79774
3952 2 1.97898 3.07865 0.148676
3920 1 4.12773 -0.00449289 3.0208
3925 1 7.13227 1.53707 2.92392
3059 1 1.9196 4.61972 7.24727
3931 2 4.07263 1.5367 4.24164
3934 2 6.09333 -0.00511676 2.87524
3938 2 8.02245 1.53695 4.55591
3940 1 4.12942 3.07886 3.01997
3947 2 6.0009 3.07928 0.040467
3954 2 6.09416 3.07937 2.87469
3924 1 10.1758 1.53323 1.54481
477 2 1.98156 6.16393 6.0234
3933 2 12.0461 1.53594 4.45109
3935 2 8.14854 1.53418 1.32288
3064 1 10.1688 4.62192 7.42732
507 2 10.1066 6.16708 8.64526
3946 1 10.9997 3.07342 4.39732
3956 2 9.99347 3.07901 0.114367
3957 2 10.113 3.07524 2.76453
506 2 9.98715 6.16656 5.99901
2721 1 1.08463 6.16399 4.3958
2728 2 0.0496452 7.70623 4.33489
2729 2 2.10306 6.16387 2.79581
476 2 2.09221 6.16207 8.67846
2732 2 1.98097 6.16511 0.148197
3939 1 1.92166 4.62175 1.36938
3948 2 0.0510154 4.61908 4.33795
3950 2 3.94859 4.62107 1.5919
2720 1 4.12844 6.16567 3.01963
485 2 5.99469 6.16735 5.91973
2727 2 5.99815 6.16624 0.0395603
3942 1 4.95838 4.62339 5.87168
2734 2 6.09256 6.16609 2.87447
3065 1 7.12189 4.62285 8.80283
3945 1 7.13046 4.62328 2.923
3951 2 4.07112 4.62196 4.23965
3958 2 8.02114 4.62336 4.55452
2723 1 7.95814 6.16692 5.77577
2726 1 10.9931 6.16295 4.39283
2733 2 12.0247 7.70897 4.43284
2735 2 8.13968 7.70888 1.3198
2736 2 9.98764 6.16555 0.112951
2737 2 10.1066 6.16309 2.76075
3944 1 10.1686 4.61872 1.54221
3953 2 12.0302 4.61909 4.44147
3955 2 8.14373 4.62028 1.32042
3039 1 1.91708 1.5343 7.25041
496 2 6.08263 6.16461 8.75285
3050 2 3.94552 1.53164 7.47366
3077 2 10.1135 3.081 8.6505
3069 2 2.10123 3.07191 8.6773
3072 2 1.98251 3.0737 6.02553
3076 2 9.98832 3.07805 6.00051
3045 1 7.1276 1.53509 8.80475
3057 2 10.1204 -0.00240902 8.65294
487 1 4.11733 6.16459 8.90437
3060 1 4.12511 3.07636 8.90113
3067 2 5.99767 3.08075 5.9225
3074 2 6.08889 3.07688 8.7543
3922 1 4.96096 1.53712 5.87337
3923 1 7.96563 -0.00532734 5.77741
3943 1 7.96118 3.07991 5.77695
3044 1 10.1741 1.53814 7.42914
3055 2 8.14577 1.53435 7.20591
2724 1 10.1632 7.70863 1.54119
3047 2 6.00078 -0.00524424 5.92506
3929 2 2.09847 -0.00467733 2.80047
2159 1 1.90989 1.54334 13.1305
2169 2 2.09634 -0.00517407 14.559
2170 2 3.94182 1.53646 13.3518
2172 2 1.96668 -3.6974e-04 11.9085
2189 2 2.09637 3.07727 14.5583
2192 2 1.96615 3.08367 11.9102
3041 1 1.07307 -0.00358391 10.2772
3048 2 0.0388089 1.53741 10.2234
3061 1 1.08046 3.07689 10.2762
2165 1 7.12748 1.53761 14.6863
2182 1 4.96041 4.62381 17.6293
883 1 7.96106 6.16879 17.5365
2187 2 5.99549 3.07993 11.8038
2194 2 6.08815 3.07993 14.6356
3042 1 4.96198 1.53488 11.7533
3043 1 7.96605 -0.00474769 11.6562
3051 2 4.07121 1.533 10.1231
3058 2 8.01814 1.53615 10.4359
3063 1 7.95944 3.07983 11.6545
2164 1 10.1712 1.53193 13.3089
2175 2 8.14397 1.5319 13.0859
2191 2 4.06665 4.62441 16.0003
3875 2 8.14523 4.62328 18.9647
2196 2 9.98625 3.07952 11.8772
2197 2 10.1101 3.07277 14.5287
3046 1 11.0149 0.00864476 10.2824
3053 2 12.0518 1.549 10.3337
3066 1 11.0086 3.08887 10.2792
478 1 1.04441 6.17204 10.2718
479 2 0.00801385 7.70494 10.2067
3864 1 10.1744 4.62462 19.1888
889 2 2.09193 6.16419 14.5593
880 1 4.11733 6.16792 14.7771
892 2 1.95309 6.16783 11.9019
2179 1 1.8983 4.63007 13.1296
2190 2 3.9341 4.62507 13.3507
3068 2 0.0422846 4.61015 10.2066
2193 2 12.0345 4.62049 16.2016
893 2 12.0259 7.71048 16.1909
498 1 7.95169 6.16608 11.6527
566 2 5.99653 6.16867 17.6809
885 1 7.11969 7.71132 14.6864
887 2 5.98902 6.16659 11.803
894 2 6.08397 6.16691 14.6354
2185 1 7.1232 4.62475 14.6862
3062 1 4.95363 4.62164 11.7538
3071 2 4.06811 4.6191 10.1211
3078 2 8.01205 4.62285 10.434
508 1 10.9934 6.16739 10.2761
886 1 10.9962 6.16329 16.1546
884 1 10.1528 7.7067 13.3033
895 2 8.13129 7.70778 13.0819
896 2 9.97861 6.16532 11.875
897 2 10.1055 6.16189 14.5237
2184 1 10.1615 4.6169 13.3064
2195 2 8.13758 4.62049 13.0842
3073 2 12.0469 4.63308 10.3251
3870 2 3.94681 4.62139 19.2315
2168 2 0.0410774 1.53368 16.11
2181 1 1.08701 3.07059 16.1629
3839 1 1.91873 1.53201 19.0102
3850 2 3.94785 1.5301 19.2331
587 2 9.9901 6.16799 17.7599
3872 2 1.98411 3.07218 17.7905
2160 1 4.12451 0.00363027 14.7802
2162 1 4.96331 1.53463 17.6324
2163 1 7.96637 -0.00149147 17.5406
2171 2 4.07103 1.54023 16.002
2178 2 8.01953 1.53694 16.3174
2180 1 4.12228 3.08387 14.7782
2183 1 7.96352 3.08177 17.5378
3859 1 1.92146 4.61949 19.008
3867 2 5.99889 3.07986 17.6825
2188 2 0.0542223 4.60972 16.1263
2173 2 12.0473 1.53631 16.2133
2186 1 11.0029 3.07507 16.1589
3844 1 10.1785 1.5387 19.1925
3855 2 8.14911 1.53497 18.968
888 2 0.045223 7.70403 16.1303
3876 2 9.99106 3.07914 17.7616
881 1 1.07625 6.16026 16.1613
558 2 1.97615 6.16394 17.7902
2198 2 8.01903 4.62461 16.3154
898 2 8.01828 7.71265 16.3145
1934 2 6.09046 6.16526 26.3897
3152 2 1.97697 3.07836 23.6673
3155 2 8.1472 4.6214 24.8404
3848 2 0.0440059 1.53789 21.9869
3153 2 12.054 4.62909 27.9614
3861 1 1.08467 3.07914 22.0371
3869 2 2.10344 3.07519 20.439
3144 1 10.1749 4.62258 25.0632
3147 2 6.00341 3.08039 23.56
1938 2 8.0157 7.70991 28.0688
3842 1 4.96617 1.53745 23.5116
1923 1 7.96131 6.16543 29.2875
3845 1 7.12872 1.53563 20.5662
3851 2 4.07336 1.53549 21.8819
1937 2 10.1153 6.16551 26.283
3858 2 8.02388 1.53591 22.1943
3860 1 4.12788 3.0783 20.661
3863 1 7.96905 3.07982 23.4128
3874 2 6.09163 3.07845 20.5141
1935 2 8.14131 7.70793 24.8392
3156 2 9.99852 3.08159 23.6352
1920 1 4.12714 6.16565 26.5376
3853 2 12.0613 1.54183 22.0918
3150 2 3.94752 4.62134 25.1096
3866 1 11.0231 3.08524 22.0385
3877 2 10.1237 3.08217 20.4114
557 2 2.10223 6.16446 20.4387
559 1 1.08659 6.16622 22.0382
560 2 0.0508061 7.70835 21.9957
1932 2 1.9789 6.16566 23.6681
3868 2 0.0494874 4.62271 21.9918
568 1 4.12543 6.16684 20.6595
1933 2 12.0433 7.7125 27.9615
1926 1 11.0074 6.16751 27.9127
3148 2 0.0492333 4.62233 27.8676
577 2 6.08908 6.16662 20.5125
579 1 7.96314 6.16667 23.4113
580 2 8.01756 7.711 22.1903
1927 2 5.99902 6.16758 23.5586
3862 1 4.9641 4.62292 23.51
3865 1 7.1268 4.62339 20.5633
3871 2 4.07212 4.6224 21.8804
3878 2 8.02056 4.62334 22.1923
588 2 10.1166 6.16992 20.4066
589 1 11.0069 6.16736 22.037
3139 1 1.92067 4.6217 24.8874
1936 2 9.99028 6.16625 23.6351
3873 2 12.0588 4.63229 22.0891
3119 1 1.9179 1.5366 24.8881
1924 1 10.1659 7.70951 25.0649
3128 2 0.0444126 1.53854 27.867
3158 2 8.01932 4.62185 28.0687
3130 2 3.94673 1.53559 25.1098
3141 1 1.08537 3.0794 27.9163
3149 2 2.10177 3.07824 26.3161
3120 1 4.12767 -0.00496306 26.5381
3122 1 4.96323 1.53672 29.3894
3142 1 4.96275 4.62213 29.388
3125 1 7.13206 1.53638 26.44
3131 2 4.07194 1.53658 27.759
3151 2 4.07162 4.62181 27.7579
3138 2 8.02277 1.53541 28.0707
3140 1 4.12853 3.07867 26.5377
3143 1 7.96517 3.07839 29.2891
3154 2 6.09267 3.07823 26.3902
3124 1 10.1824 1.53802 25.0655
1929 2 2.10218 6.16465 26.3158
3133 2 12.0596 1.54288 27.9684
3135 2 8.15334 1.53626 24.8428
1928 2 0.0509911 7.70824 27.8686
3146 1 11.0172 3.08354 27.9151
3157 2 10.1245 3.08101 26.2849
3145 1 7.12861 4.62247 26.4385
1921 1 1.08698 6.16526 27.9163
1925 1 7.12506 7.71034 26.4387
3121 1 1.08175 -0.0037782 27.917
2739 1 1.91776 10.7984 1.36981
2741 1 1.08184 9.25086 4.39597
2748 2 0.0487215 10.7942 4.33499
2749 2 2.10113 9.25247 2.79613
2750 2 3.94465 10.7988 1.59281
2752 2 1.97873 9.25448 0.147965
2740 1 4.12597 9.2545 3.02035
2745 1 7.12478 10.7991 2.92353
2747 2 5.99584 9.25468 0.0402908
2751 2 4.06636 10.798 4.24088
2754 2 6.09009 9.25418 2.8748
2758 2 8.01689 10.7994 4.55415
2744 1 10.1601 10.801 1.54253
2746 1 10.991 9.25473 4.39118
2753 2 12.0233 10.8012 4.43396
2755 2 8.13755 10.7995 1.32086
2756 2 9.98336 9.25419 0.113908
2757 2 10.1037 9.25422 2.75996
3679 1 1.91328 13.884 1.37213
3681 1 1.07467 12.3415 4.40104
3688 2 0.0357898 13.8822 4.34274
3689 2 2.09619 12.3417 2.79964
3690 2 3.94162 13.8863 1.59417
3692 2 1.97541 12.3419 0.148507
3680 1 4.12201 12.3423 3.02231
3685 1 7.12221 13.8863 2.92507
3687 2 5.9944 12.3429 0.0417011
3691 2 4.06548 13.8852 4.2433
3694 2 6.08707 12.3421 2.87584
3698 2 8.01462 13.8868 4.55573
3684 1 10.1608 13.8917 1.54586
3686 1 10.9909 12.3469 4.39367
3693 2 12.0272 13.8914 4.44389
3695 2 8.1375 13.8896 1.32353
3696 2 9.98228 12.3447 0.115621
3697 2 10.1023 12.3461 2.76309
480 2 2.08767 9.25439 8.67968
481 2 1.97453 9.25563 6.02582
483 1 1.90633 10.8005 7.25069
492 2 3.93476 10.7994 7.47289
490 2 5.99182 9.25538 5.91951
491 1 4.1133 9.25588 8.90417
500 2 6.0795 9.25494 8.75213
502 1 7.11519 10.7989 8.80089
2742 1 4.95217 10.798 5.8739
2743 1 7.95547 9.25506 5.775
503 2 8.13418 10.7996 7.20151
510 2 9.98591 9.25493 5.998
511 2 10.101 9.25428 8.64167
513 1 10.1624 10.7994 7.42265
1359 1 1.89519 13.8848 7.25577
1369 2 2.09032 12.3456 8.68033
1370 2 3.93211 13.8883 7.47524
1372 2 1.96899 12.3465 6.02952
1360 1 4.11521 12.3442 8.90082
1365 1 7.11661 13.8871 8.80205
1367 2 5.98979 12.3421 5.92257
1374 2 6.08042 12.3438 8.75238
3682 1 4.95 13.8849 5.87713
3683 1 7.95373 12.3431 5.77602
1364 1 10.1644 13.8875 7.42607
1375 2 8.1366 13.8889 7.20398
1376 2 9.98375 12.3441 5.999
1377 2 10.1042 12.3422 8.64437
3701 1 1.06832 15.4257 4.40224
3712 2 1.97127 15.4279 0.15069
3700 1 4.11897 15.4278 3.02389
3714 2 6.08449 15.4293 2.87683
475 1 1.92114 7.70934 7.2496
1392 2 1.95906 15.4266 6.03388
2722 1 4.9568 7.71057 5.87131
2738 2 8.01903 7.71118 4.55368
3703 1 7.95485 15.4297 5.777
1397 2 10.1114 15.4282 8.65004
2719 1 1.92232 7.70981 1.36791
2725 1 7.12757 7.71086 2.92268
505 1 10.1642 7.70956 7.42283
2731 2 4.06872 7.70981 4.23963
3709 2 2.09178 15.4275 2.80246
1387 2 5.99041 15.4281 5.92571
486 2 3.94155 7.71027 7.472
2730 2 3.94765 7.70962 1.59163
497 2 8.13508 7.71019 7.20151
495 1 7.11536 7.71071 8.80098
482 1 1.03723 9.24336 10.2727
484 2 0.0333406 10.8011 10.2058
899 1 1.89328 10.788 13.1314
909 2 2.08948 9.25128 14.5606
910 2 3.92984 10.7939 13.3513
912 2 1.94846 9.24936 11.9024
493 1 4.94861 10.7979 11.7539
494 2 4.06354 10.8004 10.1211
501 1 7.94785 9.25385 11.6512
504 2 8.00627 10.7982 10.4315
905 1 7.11988 10.7984 14.6873
907 2 5.9863 9.25379 11.8024
914 2 6.08279 9.25469 14.6348
512 1 10.9811 9.25368 10.2736
514 2 12.0283 10.7941 10.3183
904 1 10.1509 10.8013 13.3051
915 2 8.13093 10.7998 13.0822
916 2 9.97225 9.25341 11.8728
917 2 10.0952 9.25234 14.5191
959 1 1.90241 13.8743 13.1327
969 2 2.09066 12.3394 14.562
970 2 3.93478 13.8831 13.3526
972 2 1.95868 12.3329 11.9106
1361 1 1.06606 12.3366 10.2787
1368 2 0.0312478 13.8776 10.2259
965 1 7.12181 13.8855 14.687
967 2 5.98831 12.3411 11.8029
974 2 6.08371 12.3422 14.635
1362 1 4.95415 13.8862 11.7533
1363 1 7.95084 12.3422 11.6515
1371 2 4.06335 13.8876 10.1232
1378 2 8.00766 13.8863 10.4324
964 1 10.1579 13.8936 13.3061
975 2 8.13452 13.8919 13.0831
976 2 9.97545 12.3436 11.8727
977 2 10.1006 12.3487 14.5213
1366 1 10.9913 12.3398 10.275
1373 2 12.0462 13.8734 10.3204
562 2 1.96612 9.25721 17.7918
564 1 1.90751 10.8022 19.0105
573 2 3.93901 10.8016 19.2301
901 1 1.06955 9.25276 16.1609
908 2 0.0451893 10.8007 16.1217
571 2 5.99646 9.25647 17.6815
900 1 4.11538 9.25356 14.7776
902 1 4.9577 10.8001 17.6313
903 1 7.96149 9.25723 17.5382
911 2 4.06563 10.7966 16.0014
918 2 8.01852 10.7998 16.3152
584 2 8.14915 10.8045 18.9648
591 2 9.99067 9.25639 17.7592
594 1 10.184 10.8074 19.1852
906 1 10.9869 9.25283 16.1484
913 2 12.0184 10.7958 16.1757
159 1 1.89958 13.8872 19.0133
170 2 3.93703 13.8905 19.2317
172 2 1.96695 12.3475 17.7928
961 1 1.0714 12.3444 16.1636
968 2 0.0307622 13.8827 16.1069
167 2 5.99734 12.3438 17.6839
960 1 4.11663 12.3372 14.7802
962 1 4.95826 13.8877 17.635
963 1 7.96363 12.3433 17.5392
971 2 4.06846 13.8811 16.0031
978 2 8.01599 13.887 16.3168
164 1 10.1896 13.8879 19.1941
175 2 8.15257 13.8893 18.9681
176 2 9.99205 12.3463 17.7574
966 1 10.9985 12.3479 16.1508
973 2 12.0341 13.8913 16.1775
989 2 2.08963 15.4254 14.5623
992 2 1.9593 15.4186 11.9093
1381 1 1.06072 15.4188 10.2797
994 2 6.08429 15.4297 14.6311
1383 1 7.95652 15.4288 11.6513
891 2 4.06537 7.71086 15.9995
882 1 4.95829 7.71245 17.6286
1386 1 11.0088 15.4161 10.2774
192 2 1.95762 15.4282 17.7897
981 1 1.06113 15.4267 16.16
980 1 4.11765 15.4174 14.7815
983 1 7.96421 15.425 17.5422
567 2 3.94286 7.71277 19.2298
586 1 10.1722 7.71383 19.1841
879 1 1.89408 7.70893 13.1243
488 1 4.94906 7.70943 11.7534
489 2 4.06604 7.70961 10.1199
509 2 12.0294 7.71417 10.3208
556 1 1.91711 7.71078 19.007
987 2 5.99315 15.4304 11.803
187 2 5.99799 15.4325 17.6874
890 2 3.9299 7.7098 13.3499
499 2 8.00703 7.70985 10.4317
578 2 8.14291 7.71245 18.9631
561 2 2.09717 9.25727 20.4393
563 1 1.07917 9.25647 22.0384
565 2 0.0425628 10.7981 21.9926
1952 2 1.97444 9.25518 23.6678
572 1 4.12257 9.25738 20.6578
574 1 4.96131 10.7992 23.5086
575 2 4.07026 10.8003 21.8786
581 2 6.08805 9.25694 20.5108
582 1 7.95967 9.25521 23.41
583 1 7.12537 10.8009 20.5597
585 2 8.01604 10.7987 22.1902
1947 2 5.99723 9.25475 23.5589
592 2 10.1191 9.25946 20.4026
593 1 10.9962 9.25501 22.037
595 2 12.0444 10.788 22.1032
1956 2 9.98318 9.25142 23.6358
161 1 1.07492 12.3423 22.0379
168 2 0.0411161 13.885 21.9921
169 2 2.09555 12.3453 20.4404
2812 2 1.97285 12.3426 23.6665
160 1 4.12229 12.3444 20.6578
162 1 4.96366 13.8854 23.5095
163 1 7.96563 12.3435 23.4067
165 1 7.1256 13.8881 20.5609
171 2 4.07031 13.8866 21.8798
174 2 6.08788 12.3448 20.5099
178 2 8.01429 13.8883 22.1918
2807 2 6.00008 12.3418 23.5592
166 1 11.0427 12.3541 22.0425
2817 2 10.1068 12.3429 26.2876
177 2 10.1351 12.3464 20.4131
2816 2 9.99354 12.3433 23.6329
1939 1 1.91812 10.7996 24.8873
1941 1 1.08304 9.25457 27.9166
1948 2 0.045266 10.7971 27.8678
1949 2 2.10036 9.25381 26.3164
1950 2 3.9451 10.7989 25.1089
1940 1 4.12563 9.2547 26.5375
1942 1 4.95881 10.7984 29.3889
1943 1 7.95831 9.25453 29.2878
1945 1 7.12445 10.7995 26.439
1951 2 4.07045 10.7982 27.7576
1954 2 6.08952 9.25469 26.3894
1958 2 8.01434 10.7994 28.0696
1944 1 10.1626 10.7989 25.0652
1946 1 11.0 9.25408 27.9118
1953 2 12.0373 10.7971 27.969
1955 2 8.14136 10.8003 24.8391
1957 2 10.1046 9.2519 26.2851
2799 1 1.91691 13.8857 24.887
2801 1 1.08006 12.3414 27.9161
2808 2 0.0432308 13.8844 27.8672
2809 2 2.10043 12.3418 26.3175
2810 2 3.94396 13.8866 25.1088
2800 1 4.12482 12.3428 26.538
2802 1 4.95723 13.8863 29.3907
2803 1 7.9571 12.344 29.289
2805 1 7.12358 13.8877 26.4403
2811 2 4.06929 13.8861 27.7589
2814 2 6.08837 12.3434 26.3906
2818 2 8.01345 13.8886 28.0712
2804 1 10.1616 13.8889 25.0642
2806 1 11.0036 12.3437 27.9154
2813 2 12.0472 13.8826 27.9737
2815 2 8.14155 13.8886 24.8408
181 1 1.07244 15.4287 22.0382
180 1 4.121 15.4284 20.6585
173 2 12.0914 13.8832 22.1022
186 1 11.0511 15.4183 22.046
197 2 10.1374 15.4277 20.4174
2821 1 1.07817 15.4283 27.9171
2820 1 4.12318 15.4294 26.5389
1931 2 4.07119 7.70983 27.7571
2826 1 11.0109 15.4268 27.9186
1930 2 3.94603 7.71061 25.1091
569 1 4.96089 7.71079 23.5085
570 2 4.07087 7.71196 21.8782
1919 1 1.92028 7.71063 24.8871
2832 2 1.97023 15.4294 23.6668
1922 1 4.96124 7.70991 29.3875
576 1 7.12314 7.71197 20.5614
590 2 12.0404 7.71378 22.0887
2641 1 1.07105 18.5127 4.40219
2649 2 2.0911 18.5142 2.80341
2652 2 1.9682 18.5141 0.15427
3699 1 1.91074 16.969 1.37394
837 2 10.1164 21.5995 8.59045
3708 2 0.0348785 16.9702 4.34867
835 2 8.14962 23.1419 7.18771
3710 2 3.93848 16.9717 1.59591
836 2 9.99454 21.6005 5.96795
2640 1 4.11793 18.5133 3.02534
2647 2 5.99515 18.5153 0.0466967
2654 2 6.08242 18.5139 2.87555
815 2 8.1436 20.0578 7.19381
3705 1 7.12185 16.9718 2.92425
3707 2 5.99427 15.4302 0.0441054
3711 2 4.06204 16.9705 4.24524
804 1 10.177 20.0448 7.38629
3718 2 8.01269 16.972 4.55579
2646 1 11.0149 18.5193 4.39333
2656 2 9.9902 18.5186 0.119195
2657 2 10.1176 18.521 2.76786
3704 1 10.1686 16.9771 1.54671
3706 1 10.9975 15.4374 4.39827
3713 2 12.0455 16.9745 4.45185
3715 2 8.14126 16.9771 1.32572
2663 1 7.95373 21.5983 5.75993
3717 2 10.107 15.4361 2.7678
2639 1 1.91142 20.0564 1.3759
2648 2 0.0393628 20.0592 4.35296
2650 2 3.93832 20.0576 1.59851
2661 1 1.07739 21.6009 4.40604
2669 2 2.09362 21.6017 2.80592
2672 2 1.9687 21.6019 0.158086
2645 1 7.12058 20.056 2.91852
2651 2 4.06239 20.0564 4.24718
2658 2 8.00904 20.0541 4.54992
2660 1 4.11924 21.6002 3.02771
2667 2 5.99746 21.6003 0.0476532
2674 2 6.08316 21.5997 2.87406
2644 1 10.1771 20.0586 1.54217
2653 2 12.0607 20.0578 4.45474
2655 2 8.14538 20.061 1.32521
2666 1 11.0273 21.6014 4.37837
2676 2 9.99596 21.6011 0.116076
2677 2 10.1268 21.6032 2.75888
809 2 2.08391 18.5124 8.6818
812 2 1.9575 18.5117 6.03584
1379 1 1.89601 16.967 7.25555
1389 2 2.08664 15.4287 8.68377
1390 2 3.93085 16.9728 7.47567
2642 1 4.95138 20.0552 5.87805
800 1 4.11577 18.5161 8.90031
807 2 5.98931 18.512 5.92805
814 2 6.0861 18.5195 8.75969
834 2 6.09721 21.6034 8.7731
1385 1 7.11946 16.9734 8.80043
824 1 10.183 23.1424 7.36182
827 2 5.99113 21.5977 5.93049
2643 1 7.95313 18.5137 5.77206
3702 1 4.94935 16.9693 5.87712
820 1 4.12588 21.605 8.91223
816 2 9.99017 18.5182 5.99105
817 2 10.1244 18.5228 8.64496
1384 1 10.17 16.9703 7.42937
1395 2 8.14258 16.9769 7.20472
1396 2 9.98369 15.4339 6.00013
805 1 7.13167 20.0578 8.79586
799 1 1.90596 20.0552 7.25594
810 2 3.93563 20.0579 7.4797
829 2 2.09218 21.6008 8.68916
832 2 1.96638 21.6002 6.03885
2659 1 1.91234 23.1448 1.3782
2678 2 8.01054 23.1415 4.54606
2664 1 10.1819 23.1428 1.53701
819 1 1.90878 23.1415 7.26106
2662 1 4.95541 23.1421 5.87961
2670 2 3.94054 23.1441 1.60072
2665 1 7.12207 23.1421 2.91523
2671 2 4.06542 23.1433 4.24933
2673 2 12.0683 23.1423 4.45738
830 2 3.94204 23.1415 7.48514
825 1 7.14573 23.1406 8.79455
3716 2 9.98525 15.4326 0.117918
1380 1 4.11476 15.4304 8.90201
1394 2 6.08132 15.4317 8.75411
2002 1 4.95776 20.0578 0.00101464
719 2 2.07971 18.5077 14.5507
720 2 1.94221 18.4937 11.8999
801 1 1.04864 18.4991 10.2684
979 1 1.89291 16.9534 13.1317
1156 2 9.98241 21.6218 17.7649
990 2 3.93503 16.9716 13.3528
1135 2 8.14025 20.0551 19.0088
1124 1 10.1999 20.0453 19.2153
1388 2 0.0170741 16.9556 10.2203
728 2 6.00323 18.5146 11.8111
739 2 6.09475 18.5306 14.6334
803 1 7.96304 18.5093 11.642
985 1 7.11874 16.9737 14.6819
1144 1 10.2031 23.1385 19.2049
758 2 12.1027 23.1431 16.2131
1382 1 4.95488 16.972 11.7537
756 1 11.093 21.587 16.2208
1391 2 4.06619 16.9764 10.1233
1398 2 8.01516 16.9712 10.4299
750 2 9.9906 18.526 11.874
751 2 10.0954 18.5428 14.5309
806 1 11.0182 18.4937 10.274
984 1 10.1625 16.9786 13.3107
995 2 8.1409 16.9896 13.0827
753 2 12.0756 20.043 16.1996
1147 2 5.97011 21.6717 17.5973
1139 1 1.85258 23.1424 19.0692
1393 2 12.0546 16.9558 10.3311
718 1 1.86887 20.0285 13.1033
723 2 2.07766 21.6132 14.5794
724 2 1.94369 21.5947 11.9173
726 1 1.87752 23.1404 13.1242
729 2 3.91021 20.0333 13.3193
735 2 3.93099 23.1412 13.3724
808 2 0.0242438 20.0503 10.2305
821 1 1.05695 21.5944 10.2742
733 2 6.0006 21.6013 11.84
738 1 7.14124 20.0699 14.6988
743 2 6.02741 21.5634 14.6171
802 1 4.96969 20.0544 11.7406
811 2 4.0676 20.0605 10.1244
818 2 8.02936 20.0574 10.4334
823 1 7.93755 21.5852 11.6409
740 2 8.16598 20.1186 13.0984
745 2 8.35812 23.1428 12.9852
746 1 8.82599 23.1463 14.7692
749 1 10.177 20.0471 13.2849
754 2 10.0735 21.5202 11.7741
755 2 10.0575 21.6837 14.618
747 2 7.9177 23.1401 16.3628
813 2 12.0931 20.0175 10.3352
826 1 11.0892 21.5431 10.1364
179 1 1.89947 16.9689 19.011
190 2 3.93435 16.9823 19.2291
744 1 7.95866 21.5323 17.6903
721 1 1.07217 18.5123 16.1605
742 2 7.98266 20.0956 16.3554
988 2 0.0319376 16.9726 16.1087
1132 2 1.96683 18.5178 17.7918
822 1 4.95986 23.1419 11.7795
730 1 4.11604 18.4845 14.7795
741 1 7.95941 18.4984 17.5395
737 2 4.28458 23.1411 15.9664
982 1 4.96079 16.978 17.6389
734 1 4.04587 21.5005 14.6896
991 2 4.07086 16.9615 16.0056
998 2 8.01374 16.9691 16.3139
1127 2 5.98898 18.5354 17.6809
184 1 10.1919 16.9626 19.1925
195 2 8.15061 16.9778 18.9686
732 2 4.0127 20.0356 16.0051
752 1 11.003 18.5185 16.1584
731 1 4.94728 20.0797 17.6171
993 2 12.037 16.9838 16.1888
1136 2 9.98083 18.5328 17.7608
722 2 0.0386101 20.0582 16.1196
725 1 1.05577 21.5992 16.1892
1152 2 2.00678 21.6302 17.7962
1119 1 1.91356 20.0604 19.0143
1130 2 3.94259 20.0771 19.2328
831 2 4.07677 23.1416 10.1422
838 2 8.03206 23.1409 10.4424
736 1 4.78087 23.1402 17.8128
757 1 10.4534 23.1396 12.6821
833 2 12.0347 23.1413 10.3796
1150 2 3.87604 23.142 19.3557
1155 2 8.1279 23.1402 18.9745
996 2 9.98165 15.4324 11.8736
997 2 10.1029 15.4401 14.5275
196 2 9.99087 15.4351 17.7586
986 1 11.0072 15.437 16.1557
2037 2 10.1275 21.6021 26.2924
188 2 0.0376175 16.9712 21.9892
189 2 2.09289 15.4301 20.4391
1121 1 1.07102 18.5132 22.0426
1129 2 2.0909 18.5216 20.4417
2012 2 1.96591 18.5172 23.6721
2005 1 7.12347 20.0593 26.4496
2026 1 11.0238 21.5992 27.9201
182 1 4.95726 16.9695 23.5104
2015 2 8.14698 20.0629 24.8539
185 1 7.12535 16.9744 20.5643
191 2 4.06368 16.9699 21.8805
194 2 6.08698 15.432 20.5094
198 2 8.01419 16.9789 22.195
1120 1 4.11464 18.5094 20.6566
1123 1 7.96304 18.5148 23.4237
1134 2 6.07861 18.5141 20.5063
2007 2 5.99761 18.5123 23.5623
2827 2 5.9997 15.43 23.5599
2013 2 12.0584 20.055 27.9754
193 2 12.056 16.9797 22.1125
2004 1 10.1789 20.0591 25.0751
1126 1 11.017 18.5131 22.0511
1137 2 10.1295 18.5082 20.4147
2016 2 9.98885 18.5231 23.6433
2836 2 9.99525 15.433 23.635
1128 2 0.0292189 20.0529 21.9946
1141 1 1.05616 21.5964 22.0635
1149 2 2.07518 21.5965 20.4656
2032 2 1.96374 21.6011 23.6825
1122 1 4.9574 20.0511 23.5323
1125 1 7.09619 20.0597 20.603
1131 2 4.06639 20.0436 21.8978
1138 2 8.00924 20.0655 22.209
1140 1 4.09965 21.5873 20.7212
1143 1 7.96432 21.6009 23.4377
1154 2 6.06635 21.607 20.4712
2027 2 5.9946 21.5966 23.5604
1133 2 12.0563 20.0555 22.0927
1146 1 11.0234 21.5982 22.0542
1157 2 10.1261 21.5995 20.416
2036 2 9.99462 21.6031 23.6445
2001 1 1.07529 18.5147 27.9217
2009 2 2.09379 18.516 26.3225
2819 1 1.91279 16.9706 24.889
2034 2 6.0836 21.6019 26.3912
2828 2 0.0404587 16.9709 27.8701
2829 2 2.09814 15.4296 26.3183
2830 2 3.94026 16.9738 25.1109
2000 1 4.12073 18.5145 26.5447
2003 1 7.96042 18.5165 29.2955
2014 2 6.08559 18.5172 26.3914
2023 1 7.96387 21.6007 29.2962
2822 1 4.95613 16.9725 29.3935
2020 1 4.11912 21.6011 26.5552
2825 1 7.12439 16.9741 26.4432
2831 2 4.06695 16.9719 27.7619
2834 2 6.08716 15.4313 26.3915
2838 2 8.01398 16.9758 28.074
2006 1 11.0153 18.5141 27.92
2017 2 10.1154 18.519 26.2945
2824 1 10.1713 16.9748 25.0708
2018 2 8.01523 20.0598 28.077
2833 2 12.0487 16.97 27.9796
2835 2 8.14568 16.975 24.8454
2011 2 4.06604 20.0568 27.7681
1999 1 1.90747 20.0553 24.9009
2008 2 0.0413664 20.0598 27.8727
2010 2 3.93689 20.0584 25.1222
2021 1 1.07579 21.6029 27.9264
2029 2 2.09344 21.6023 26.3284
2837 2 10.11 15.4311 26.2923
1145 1 7.11336 23.1409 20.5942
1151 2 4.06164 23.1424 21.9212
1158 2 8.01066 23.1414 22.2087
1153 2 12.0669 23.1375 22.0906
2038 2 8.01855 23.1427 28.0763
183 1 7.96673 15.4312 23.4092
2823 1 7.95817 15.4318 29.2919
1439 1 1.91281 26.2305 1.37624
1441 1 1.07862 24.6857 4.40634
1448 2 0.039735 26.2278 4.35573
1449 2 2.09513 24.6873 2.80614
1450 2 3.94197 26.2285 1.5977
1452 2 1.96942 24.6874 0.157417
3237 2 10.132 27.7621 8.64647
2668 2 0.0404966 23.1441 4.35583
3056 2 9.99457 30.8493 6.00096
1440 1 4.12172 24.686 3.02708
1445 1 7.12662 26.2277 2.91832
1447 2 6.00055 24.6857 0.04702
1451 2 4.06741 26.2287 4.24661
1454 2 6.08609 24.6861 2.87355
1458 2 8.01537 26.2288 4.54982
3049 2 2.09795 30.8473 8.68154
3937 2 10.1219 30.8491 2.76935
3236 2 9.99884 27.766 5.99183
1444 1 10.1835 26.2275 1.54207
1446 1 11.03 24.6847 4.3785
1453 2 12.0661 26.2269 4.4546
1455 2 8.15201 26.2256 1.32478
1456 2 9.99947 24.6834 0.115853
1457 2 10.1303 24.6834 2.75855
3235 2 8.1521 29.3057 7.20568
3936 2 9.99805 30.8508 0.117874
2675 2 8.14856 23.1432 1.32326
1459 1 1.91416 29.3132 1.37354
1461 1 1.07823 27.7694 4.40267
1468 2 0.0389118 29.3111 4.3529
1469 2 2.09607 27.7708 2.803
1470 2 3.94402 29.3109 1.59429
1472 2 1.9708 27.771 0.153454
1460 1 4.12449 27.7703 3.02335
1465 1 7.13183 29.3105 2.9238
1467 2 6.00256 27.7692 0.045396
1471 2 4.06952 29.3118 4.24378
1474 2 6.08962 27.7703 2.87436
1478 2 8.02207 29.31 4.55579
1464 1 10.1819 29.3091 1.54725
1466 1 11.0238 27.7673 4.39402
1473 2 12.0581 29.3102 4.45294
1475 2 8.15243 29.3078 1.32574
1476 2 10.0007 27.767 0.11882
1477 2 10.1282 27.7656 2.76749
3224 1 10.1798 29.3143 7.43037
3220 1 4.12564 27.7634 8.90096
3199 1 1.91182 26.226 7.25659
3209 2 2.09437 24.6824 8.68962
3210 2 3.94246 26.2227 7.48028
3212 2 1.96861 24.6829 6.03887
1463 1 7.96117 27.769 5.77265
1442 1 4.95633 26.2279 5.87752
1443 1 7.95674 24.6849 5.76001
3234 2 6.09563 27.7624 8.76246
3200 1 4.12937 24.6773 8.91237
3205 1 7.13921 26.2232 8.79792
3207 2 5.99427 24.6847 5.93026
3214 2 6.10107 24.6798 8.77413
3227 2 5.99719 27.7692 5.92784
3225 1 7.13129 29.3071 8.80315
3204 1 10.1828 26.24 7.38716
3215 2 8.14958 26.226 7.19448
3216 2 9.99759 24.6833 5.96828
3217 2 10.1192 24.6855 8.59089
3219 1 1.91264 29.3094 7.25324
3229 2 2.09352 27.7663 8.68164
3230 2 3.94318 29.3058 7.47554
3232 2 1.97016 27.7669 6.03353
1462 1 4.95883 29.312 5.87462
3921 1 1.07994 30.8517 4.40031
3927 2 6.00266 30.8519 0.042895
3926 1 11.0129 30.8486 4.40075
3052 2 1.97377 30.8489 6.03017
3040 1 4.12619 30.8474 8.90287
3054 2 6.09194 30.8479 8.75699
2022 1 4.96078 23.1438 0.00443559
3282 1 4.96195 26.2285 5.22531e-04
828 2 0.0233232 23.1401 10.2338
2319 1 1.87276 26.2497 13.104
2329 2 2.07893 24.6723 14.5793
2330 2 3.91534 26.2468 13.3198
2332 2 1.94562 24.6851 11.9169
3201 1 1.05799 24.6845 10.2741
3208 2 0.0243697 26.2298 10.232
2353 2 12.0564 29.3096 16.2125
727 2 0.02945 23.1444 16.1294
3852 2 1.9727 30.8467 17.787
2325 1 7.14452 26.2106 14.7007
2327 2 6.0048 24.6801 11.8407
2334 2 6.03122 24.7165 14.6178
3202 1 4.97558 26.2277 11.7418
3203 1 7.94222 24.697 11.6423
3211 2 4.07366 26.2213 10.1254
3218 2 8.03751 26.2248 10.4358
2177 2 10.1161 30.8453 14.5348
2324 1 10.1833 26.2382 13.2914
2335 2 8.17232 26.1666 13.1019
2336 2 10.0772 24.7622 11.7771
2337 2 10.0582 24.6077 14.6231
3206 1 11.0902 24.7403 10.1382
3213 2 12.0963 26.2646 10.3367
2339 1 1.90145 29.3219 13.1295
2349 2 2.08544 27.7728 14.5505
2350 2 3.94216 29.307 13.3525
2352 2 1.9512 27.7825 11.8992
3221 1 1.05853 27.7749 10.2676
3228 2 0.0244852 29.3182 10.2224
2345 1 7.12448 29.3064 14.6826
2347 2 6.01168 27.7662 11.8131
2354 2 6.09943 27.7503 14.6351
3222 1 4.96319 29.3081 11.7544
3223 1 7.97209 27.7726 11.6463
3231 2 4.07446 29.3031 10.1241
3238 2 8.02694 29.3105 10.4336
2344 1 10.1749 29.307 13.3159
2355 2 8.15065 29.2931 13.0869
2356 2 10.0003 27.7586 11.8802
2357 2 10.1119 27.7462 14.5376
3226 1 11.0237 27.7893 10.277
3233 2 12.0603 29.3264 10.338
2346 1 11.0173 27.7727 16.1663
1555 2 8.1495 29.3 18.969
1519 1 1.9158 26.2213 19.0149
1530 2 3.94633 26.2038 19.2343
1532 2 2.00723 24.6544 17.7955
2321 1 1.05524 24.6888 16.1887
2328 2 0.034775 26.229 16.1169
1527 2 5.97167 24.6079 17.5988
2320 1 4.04829 24.7801 14.69
2322 1 4.94981 26.1999 17.6183
2323 1 7.95977 24.7469 17.6925
2331 2 4.01691 26.2443 16.0055
2338 2 7.98647 26.1836 16.357
1556 2 9.98616 27.7494 17.7636
1544 1 10.1825 29.3121 19.195
1524 1 10.2026 26.2315 19.2187
1535 2 8.14436 26.2255 19.0104
1536 2 9.98503 24.6594 17.7676
2326 1 11.0951 24.7008 16.2239
2333 2 12.0827 26.243 16.2067
1539 1 1.91222 29.3071 19.0096
1550 2 3.9433 29.2958 19.2308
1552 2 1.97689 27.7606 17.789
2341 1 1.07773 27.7688 16.1599
2348 2 0.0352389 29.3081 16.1089
1547 2 5.9929 27.7433 17.6813
2340 1 4.12115 27.7943 14.78
2342 1 4.96594 29.3009 17.638
2343 1 7.9628 27.7802 17.5386
2351 2 4.07512 29.3179 16.0053
2358 2 8.01828 29.311 16.3151
2167 2 6.00212 30.849 11.805
2174 2 6.09025 30.8503 14.6323
2176 2 9.99233 30.8505 11.8815
2161 1 1.07534 30.8482 16.1583
3847 2 6.00159 30.8468 17.6862
2166 1 11.0142 30.8504 16.1638
3856 2 9.99362 30.8475 17.7631
748 1 6.20629 23.1393 15.5409
1148 2 0.026439 23.1427 21.9917
1521 1 1.05514 24.6889 22.0629
1528 2 0.0255292 26.2327 21.9926
1529 2 2.07556 24.689 20.4655
3292 2 1.9629 24.6863 23.682
3317 2 10.1342 27.7691 26.2907
3134 2 6.09309 30.8512 26.3908
3129 2 2.09903 30.8522 26.3171
3136 2 10.0012 30.8514 23.6383
1520 1 4.1017 24.6964 20.7212
1522 1 4.96209 26.2332 23.5334
1523 1 7.96835 24.6827 23.438
1525 1 7.10176 26.222 20.6054
1531 2 4.06925 26.239 21.8997
1534 2 6.06906 24.6766 20.4726
1538 2 8.01605 26.2176 22.2107
3287 2 5.9982 24.6873 23.5613
3854 2 6.09207 30.8484 20.5143
1526 1 11.0292 24.6809 22.0544
1533 2 12.0663 26.2238 22.0898
1537 2 10.1302 24.6775 20.4177
3296 2 9.99984 24.6805 23.6445
1541 1 1.07467 27.7681 22.0414
1548 2 0.0388227 29.3111 21.9868
1549 2 2.09551 27.7594 20.4416
3312 2 1.96746 27.767 23.6715
1540 1 4.12016 27.7707 20.6585
1542 1 4.9624 29.3121 23.5122
1543 1 7.9719 27.7684 23.4253
1545 1 7.12967 29.3064 20.5691
1551 2 4.06775 29.3102 21.8827
1554 2 6.0837 27.767 20.51
1558 2 8.02398 29.3049 22.1974
3307 2 6.00483 27.7708 23.5628
1546 1 11.0296 27.7692 22.0504
1553 2 12.0653 29.3123 22.0942
1557 2 10.1324 27.769 20.4187
3316 2 10.0018 27.7641 23.6423
3315 2 8.156 29.3083 24.8471
2028 2 0.0390959 23.1459 27.872
2030 2 3.93711 23.1443 25.1319
3279 1 1.90759 26.2307 24.9009
3281 1 1.0754 24.6882 27.9263
3288 2 0.0380762 26.2304 27.8705
3289 2 2.09383 24.688 26.3283
3290 2 3.93908 26.2279 25.1218
3313 2 12.0633 29.3137 27.9716
3306 1 11.0264 27.7701 27.921
2031 2 4.0661 23.1443 27.7735
3127 2 6.00493 30.8518 23.5612
3280 1 4.12074 24.6866 26.5547
1142 1 4.95971 23.1429 23.5458
3283 1 7.96705 24.6849 29.2957
3285 1 7.12872 26.2261 26.4493
3291 2 4.06878 26.2302 27.7681
3294 2 6.08599 24.6855 26.3913
3298 2 8.0223 26.2258 28.0761
3304 1 10.1862 29.311 25.0696
2033 2 12.0648 23.1406 27.9726
2035 2 8.1478 23.1433 24.8541
3284 1 10.1876 26.2263 25.074
3286 1 11.0273 24.6841 27.9203
3293 2 12.0652 26.227 27.9724
3295 2 8.15531 26.2243 24.8548