# LAMMPS data file written by OVITO Basic 3.7.11
3998 atoms
2 atom types
0.0 48.4282885418 xlo xhi
0.0 30.8572093325 ylo yhi
0.0 29.396923244 zlo zhi

Atoms  # atomic

3919 1 1.91759 1.53769 1.37139
3070 2 3.9435 4.62075 7.47225
3928 2 0.0429018 1.5363 4.34685
3075 2 8.14014 4.62198 7.20337
3930 2 3.94717 1.53548 1.59261
3932 2 1.97384 -0.00426675 0.150399
3941 1 1.08544 3.07655 4.39854
3949 2 2.10243 3.07712 2.79765
3952 2 1.97889 3.07858 0.14859
3920 1 4.12765 -0.00467264 3.02082
3925 1 7.13221 1.53696 2.92394
3059 1 1.91961 4.61952 7.24719
3931 2 4.07253 1.53657 4.24161
3934 2 6.09326 -0.0052293 2.87529
3938 2 8.02241 1.5368 4.55592
3940 1 4.1294 3.07869 3.01988
3947 2 6.00084 3.0792 0.0402875
3954 2 6.09412 3.07927 2.8746
3924 1 10.1756 1.53337 1.54472
477 2 1.98164 6.16374 6.0233
3933 2 12.0459 1.53598 4.45078
3935 2 8.14837 1.53424 1.3228
3064 1 10.1688 4.6218 7.42709
507 2 10.1066 6.16699 8.64499
3946 1 10.9995 3.07349 4.39715
3956 2 9.99333 3.07916 0.114177
3957 2 10.1128 3.0754 2.76439
506 2 9.98706 6.16653 5.99876
2721 1 1.08466 6.16381 4.39572
2728 2 0.0496539 7.70605 4.33481
2729 2 2.10307 6.1638 2.7957
476 2 2.09225 6.16189 8.67835
2732 2 1.98091 6.16505 0.148096
3939 1 1.92165 4.62169 1.36926
3948 2 0.0510511 4.61888 4.33789
3950 2 3.94856 4.62093 1.59178
2720 1 4.12841 6.16557 3.01949
485 2 5.99468 6.16726 5.91952
2727 2 5.99811 6.16616 0.0394005
3942 1 4.95833 4.62331 5.87157
2734 2 6.09249 6.16602 2.87421
3065 1 7.12184 4.62275 8.80266
3945 1 7.13039 4.6232 2.9229
3951 2 4.07106 4.62184 4.23954
3958 2 8.02109 4.62322 4.5544
2723 1 7.9581 6.16685 5.77552
2726 1 10.9931 6.16304 4.39261
2733 2 12.0247 7.70905 4.43258
2735 2 8.13961 7.70895 1.31955
2736 2 9.98754 6.16564 0.112669
2737 2 10.1065 6.16326 2.76054
3944 1 10.1685 4.61889 1.54203
3953 2 12.0301 4.61913 4.44119
3955 2 8.14362 4.62038 1.32029
3039 1 1.9171 1.53407 7.25042
496 2 6.08263 6.16454 8.75261
3050 2 3.94552 1.53144 7.47367
3077 2 10.1134 3.08088 8.65033
3069 2 2.10125 3.07169 8.67729
3072 2 1.98257 3.07346 6.02549
3076 2 9.98824 3.07795 6.00042
3045 1 7.12758 1.53492 8.80474
3057 2 10.1204 -0.00259212 8.65288
487 1 4.11736 6.16448 8.90426
3060 1 4.12511 3.07621 8.90112
3067 2 5.99761 3.08067 5.92241
3074 2 6.0889 3.07672 8.75427
3922 1 4.96087 1.53705 5.87333
3923 1 7.96556 -0.00548926 5.77746
3943 1 7.96111 3.07979 5.77692
3044 1 10.1741 1.53793 7.42908
3055 2 8.14574 1.53414 7.20591
2724 1 10.1631 7.70877 1.54094
3047 2 6.00068 -0.00534017 5.92503
3929 2 2.09842 -0.0048651 2.80047
2159 1 1.90983 1.54308 13.1305
2169 2 2.09626 -0.00542741 14.559
2170 2 3.94174 1.53623 13.3518
2172 2 1.96661 -6.54671e-04 11.9085
2189 2 2.09629 3.07704 14.5582
2192 2 1.96612 3.08336 11.9101
3041 1 1.07303 -0.00393758 10.2772
3048 2 0.0387903 1.53707 10.2233
3061 1 1.08043 3.07654 10.2762
2165 1 7.12752 1.53741 14.6864
2182 1 4.96032 4.62362 17.6292
883 1 7.96104 6.16863 17.5364
2187 2 5.99545 3.07972 11.8039
2194 2 6.08813 3.07969 14.6357
3042 1 4.96194 1.53468 11.7534
3043 1 7.96605 -0.00495791 11.6562
3051 2 4.07128 1.53283 10.1231
3058 2 8.01811 1.53595 10.4359
3063 1 7.95939 3.07967 11.6544
2164 1 10.1712 1.53175 13.3088
2175 2 8.144 1.53166 13.0859
2191 2 4.06652 4.62419 16.0003
3875 2 8.14531 4.62321 18.9646
2196 2 9.98618 3.07939 11.877
2197 2 10.1101 3.07264 14.5286
3046 1 11.0149 0.0085836 10.2822
3053 2 12.0518 1.54903 10.3336
3066 1 11.0085 3.08886 10.279
478 1 1.04441 6.17175 10.2716
479 2 0.00804143 7.70468 10.2065
3864 1 10.1746 4.62456 19.1887
889 2 2.09188 6.16395 14.5591
880 1 4.11727 6.16767 14.777
892 2 1.9531 6.16755 11.9018
2179 1 1.89828 4.6298 13.1295
2190 2 3.93408 4.62485 13.3506
3068 2 0.0423176 4.60984 10.2065
2193 2 12.0344 4.6205 16.2013
893 2 12.0258 7.71048 16.1906
498 1 7.95161 6.16594 11.6525
566 2 5.9965 6.16846 17.6808
885 1 7.11965 7.71106 14.6862
887 2 5.98894 6.16649 11.8029
894 2 6.08393 6.16667 14.6353
2185 1 7.12319 4.6245 14.6861
3062 1 4.95362 4.62148 11.7538
3071 2 4.06814 4.619 10.1211
3078 2 8.01192 4.62274 10.4339
508 1 10.9933 6.16735 10.276
886 1 10.9961 6.16327 16.1543
884 1 10.1527 7.70666 13.3031
895 2 8.13121 7.70761 13.0817
896 2 9.97854 6.16521 11.8748
897 2 10.1053 6.16182 14.5235
2184 1 10.1614 4.61677 13.3062
2195 2 8.1375 4.6203 13.0841
3073 2 12.0468 4.63309 10.3249
3870 2 3.94667 4.62123 19.2313
2168 2 0.0410253 1.53343 16.11
2181 1 1.08695 3.07034 16.1627
3839 1 1.91865 1.5318 19.01
3850 2 3.94771 1.5299 19.233
587 2 9.99017 6.16791 17.7597
3872 2 1.98406 3.07196 17.7904
2160 1 4.12447 0.0034147 14.7802
2162 1 4.96326 1.53446 17.6324
2163 1 7.96636 -0.00162449 17.5406
2171 2 4.07087 1.54002 16.002
2178 2 8.01953 1.53679 16.3174
2180 1 4.12222 3.08364 14.7781
2183 1 7.96353 3.08165 17.5379
3859 1 1.9214 4.61929 19.0078
3867 2 5.99884 3.0797 17.6825
2188 2 0.0542085 4.6095 16.1262
2173 2 12.0473 1.53628 16.2132
2186 1 11.0029 3.07505 16.1587
3844 1 10.1786 1.53866 19.1925
3855 2 8.14914 1.53501 18.9681
888 2 0.0452523 7.70386 16.1302
3876 2 9.99113 3.0791 17.7615
881 1 1.07622 6.16004 16.1612
558 2 1.97615 6.16373 17.79
2198 2 8.01897 4.62442 16.3154
898 2 8.01824 7.71244 16.3144
1934 2 6.09046 6.16525 26.3896
3152 2 1.97691 3.07827 23.6671
3155 2 8.14716 4.62155 24.8402
3848 2 0.0439178 1.53773 21.9868
3153 2 12.054 4.62928 27.9611
3861 1 1.08457 3.079 22.0371
3869 2 2.10329 3.07501 20.4389
3144 1 10.1748 4.62282 25.0629
3147 2 6.00334 3.08039 23.56
1938 2 8.01564 7.70999 28.0685
3842 1 4.96608 1.53746 23.5115
1923 1 7.96124 6.16549 29.2872
3845 1 7.12858 1.53563 20.5662
3851 2 4.07324 1.53541 21.8818
1937 2 10.1154 6.16578 26.2827
3858 2 8.02369 1.53593 22.1943
3860 1 4.12769 3.07818 20.6609
3863 1 7.96898 3.07992 23.4128
3874 2 6.09146 3.07844 20.5141
1935 2 8.14132 7.70807 24.8389
3156 2 9.99846 3.08177 23.635
1920 1 4.12715 6.16553 26.5375
3853 2 12.0614 1.54187 22.0917
3150 2 3.94746 4.62124 25.1095
3866 1 11.0232 3.08535 22.0385
3877 2 10.1239 3.08219 20.4113
557 2 2.1021 6.16433 20.4385
559 1 1.08652 6.1661 22.0381
560 2 0.0507617 7.70824 21.9956
1932 2 1.97882 6.16554 23.668
3868 2 0.0494136 4.62258 21.9916
568 1 4.1253 6.16673 20.6594
1933 2 12.0433 7.71267 27.9613
1926 1 11.0073 6.16772 27.9124
3148 2 0.0492077 4.62228 27.8674
577 2 6.08897 6.16654 20.5124
579 1 7.96309 6.16679 23.4111
580 2 8.01745 7.71105 22.19
1927 2 5.99896 6.16754 23.5585
3862 1 4.96399 4.62288 23.5098
3865 1 7.12673 4.62333 20.5632
3871 2 4.07196 4.62231 21.8803
3878 2 8.02044 4.62337 22.1922
588 2 10.1168 6.1699 20.4063
589 1 11.007 6.16744 22.0367
3139 1 1.92059 4.62159 24.8873
1936 2 9.99024 6.16645 23.6348
3873 2 12.059 4.63237 22.0888
3119 1 1.9178 1.53653 24.888
1924 1 10.166 7.70972 25.0645
3128 2 0.0443612 1.53848 27.8669
3158 2 8.01929 4.62187 28.0685
3130 2 3.94665 1.53554 25.1097
3141 1 1.08532 3.07934 27.9162
3149 2 2.1017 3.07814 26.316
3120 1 4.12761 -0.00503275 26.538
3122 1 4.96316 1.53663 29.3894
3142 1 4.96272 4.62205 29.3879
3125 1 7.13201 1.53631 26.44
3131 2 4.07189 1.53648 27.759
3151 2 4.07165 4.62171 27.7578
3138 2 8.02271 1.5354 28.0706
3140 1 4.12849 3.07855 26.5376
3143 1 7.96509 3.07847 29.289
3154 2 6.09265 3.07817 26.3902
3124 1 10.1823 1.53823 25.0654
1929 2 2.10215 6.16454 26.3157
3133 2 12.0594 1.54308 27.9681
3135 2 8.15328 1.53635 24.8427
1928 2 0.0509855 7.70821 27.8685
3146 1 11.0171 3.08377 27.9149
3157 2 10.1244 3.08129 26.2847
3145 1 7.12855 4.62243 26.4383
1921 1 1.08696 6.16522 27.9162
1925 1 7.12505 7.71037 26.4384
3121 1 1.08172 -0.00383161 27.917
2739 1 1.91777 10.7984 1.36968
2741 1 1.08182 9.25072 4.39584
2748 2 0.0487155 10.7941 4.33484
2749 2 2.10116 9.25243 2.79601
2750 2 3.94462 10.7988 1.59266
2752 2 1.97872 9.25446 0.147852
2740 1 4.12598 9.25449 3.02022
2745 1 7.12471 10.7991 2.92325
2747 2 5.99582 9.25463 0.0401237
2751 2 4.06647 10.798 4.24071
2754 2 6.09005 9.25416 2.87454
2758 2 8.01672 10.7994 4.55391
2744 1 10.1602 10.8011 1.5423
2746 1 10.9911 9.25486 4.39086
2753 2 12.0235 10.8013 4.43359
2755 2 8.13753 10.7996 1.32062
2756 2 9.98334 9.25436 0.113654
2757 2 10.1038 9.25438 2.75968
3679 1 1.91327 13.884 1.37205
3681 1 1.07466 12.3414 4.40092
3688 2 0.035761 13.882 4.34256
3689 2 2.09623 12.3417 2.79953
3690 2 3.9416 13.8863 1.59405
3692 2 1.97541 12.3419 0.148415
3680 1 4.12202 12.3424 3.0222
3685 1 7.12224 13.8863 2.92477
3687 2 5.99435 12.3429 0.0414988
3691 2 4.06559 13.8853 4.24315
3694 2 6.08705 12.3422 2.87553
3698 2 8.01446 13.8868 4.55551
3684 1 10.1609 13.8917 1.54558
3686 1 10.9911 12.3469 4.39345
3693 2 12.0275 13.8914 4.44361
3695 2 8.13753 13.8896 1.32325
3696 2 9.98235 12.3448 0.115405
3697 2 10.1023 12.3461 2.76292
480 2 2.08773 9.25421 8.67952
481 2 1.97456 9.25548 6.02565
483 1 1.90636 10.8003 7.25053
492 2 3.93481 10.7993 7.47274
490 2 5.99179 9.25531 5.91931
491 1 4.11334 9.25578 8.90402
500 2 6.0795 9.25487 8.75197
502 1 7.11518 10.7988 8.8007
2742 1 4.95223 10.798 5.87376
2743 1 7.95542 9.25502 5.77472
503 2 8.13409 10.7995 7.20127
510 2 9.98586 9.25497 5.99765
511 2 10.1007 9.25423 8.64141
513 1 10.1623 10.7994 7.42231
1359 1 1.89517 13.8847 7.25562
1369 2 2.09031 12.3454 8.68016
1370 2 3.93211 13.8882 7.47512
1372 2 1.969 12.3464 6.02938
1360 1 4.11519 12.3441 8.90068
1365 1 7.11664 13.887 8.80183
1367 2 5.98981 12.3421 5.92245
1374 2 6.08042 12.3437 8.75237
3682 1 4.95004 13.8849 5.87703
3683 1 7.95373 12.3431 5.77572
1364 1 10.1643 13.8876 7.42574
1375 2 8.13657 13.8889 7.20371
1376 2 9.9837 12.3441 5.99864
1377 2 10.104 12.3421 8.64399
3701 1 1.06828 15.4256 4.4021
3712 2 1.97127 15.4278 0.150648
3700 1 4.11906 15.4278 3.02372
3714 2 6.08456 15.4294 2.87652
475 1 1.9212 7.70918 7.24947
1392 2 1.95902 15.4265 6.03375
2722 1 4.95683 7.71048 5.87115
2738 2 8.01896 7.71112 4.55341
3703 1 7.95484 15.4298 5.77669
1397 2 10.1112 15.4283 8.64968
2719 1 1.92233 7.70979 1.36777
2725 1 7.1275 7.7108 2.92243
505 1 10.164 7.7095 7.42258
2731 2 4.06883 7.70975 4.23943
3709 2 2.09183 15.4276 2.80236
1387 2 5.99043 15.4281 5.92563
486 2 3.94161 7.71013 7.47185
2730 2 3.94762 7.70954 1.59145
497 2 8.13499 7.7102 7.20127
495 1 7.11536 7.71064 8.80077
482 1 1.03723 9.24314 10.2725
484 2 0.0333511 10.8009 10.2056
899 1 1.89328 10.7878 13.1312
909 2 2.08946 9.25105 14.5605
910 2 3.92977 10.7937 13.3512
912 2 1.94846 9.24912 11.9022
493 1 4.9485 10.7978 11.7538
494 2 4.06344 10.8002 10.1209
501 1 7.94775 9.25372 11.6511
504 2 8.00622 10.7981 10.4313
905 1 7.11978 10.7981 14.6872
907 2 5.98622 9.25373 11.8023
914 2 6.08272 9.25445 14.6346
512 1 10.9809 9.25365 10.2733
514 2 12.0281 10.794 10.3178
904 1 10.1507 10.8013 13.3048
915 2 8.1308 10.7998 13.082
916 2 9.97209 9.25333 11.8725
917 2 10.095 9.25234 14.5189
959 1 1.90244 13.8741 13.1325
969 2 2.09064 12.3392 14.5619
970 2 3.93473 13.8829 13.3525
972 2 1.95868 12.3327 11.9105
1361 1 1.06604 12.3365 10.2786
1368 2 0.0312864 13.8775 10.2257
965 1 7.12171 13.8853 14.6869
967 2 5.9882 12.341 11.8028
974 2 6.08361 12.342 14.635
1362 1 4.95405 13.8861 11.7531
1363 1 7.95071 12.3421 11.6512
1371 2 4.06318 13.8875 10.123
1378 2 8.00765 13.8862 10.4322
964 1 10.1577 13.8937 13.3059
975 2 8.13437 13.8918 13.0829
976 2 9.97524 12.3436 11.8725
977 2 10.1005 12.3488 14.521
1366 1 10.991 12.3397 10.2747
1373 2 12.046 13.8732 10.32
562 2 1.96611 9.25698 17.7917
564 1 1.90752 10.802 19.0104
573 2 3.93894 10.8014 19.23
901 1 1.0696 9.25257 16.1608
908 2 0.0452743 10.8006 16.1215
571 2 5.99643 9.25627 17.6814
900 1 4.1153 9.25331 14.7775
902 1 4.95764 10.7999 17.6312
903 1 7.96143 9.25707 17.5381
911 2 4.06554 10.7963 16.0013
918 2 8.01843 10.7997 16.315
584 2 8.14912 10.8044 18.9647
591 2 9.99061 9.25627 17.759
594 1 10.184 10.8073 19.185
906 1 10.9868 9.25287 16.1482
913 2 12.0183 10.7959 16.1754
159 1 1.89956 13.887 19.0133
170 2 3.93693 13.8904 19.2317
172 2 1.967 12.3473 17.7927
961 1 1.07144 12.3442 16.1635
968 2 0.0308545 13.8825 16.1068
167 2 5.99723 12.3436 17.6838
960 1 4.11654 12.337 14.7801
962 1 4.95814 13.8875 17.6349
963 1 7.96355 12.3431 17.5391
971 2 4.06831 13.8809 16.0031
978 2 8.01585 13.8868 16.3167
164 1 10.1896 13.8877 19.1939
175 2 8.15254 13.8891 18.968
176 2 9.99204 12.3462 17.7572
966 1 10.9984 12.348 16.1506
973 2 12.034 13.8914 16.1774
989 2 2.08961 15.4252 14.5622
992 2 1.95931 15.4184 11.9092
1381 1 1.06075 15.4187 10.2796
994 2 6.08419 15.4295 14.6311
1383 1 7.95641 15.4287 11.6511
891 2 4.06538 7.71062 15.9994
882 1 4.95827 7.71225 17.6285
1386 1 11.0086 15.4159 10.2771
192 2 1.9576 15.4281 17.7896
981 1 1.06117 15.4266 16.1599
980 1 4.11757 15.4172 14.7815
983 1 7.96408 15.4249 17.5421
567 2 3.94281 7.71261 19.2297
586 1 10.1723 7.71374 19.1838
879 1 1.89404 7.70867 13.1241
488 1 4.949 7.70935 11.7534
489 2 4.06606 7.70952 10.1198
509 2 12.0292 7.71414 10.3205
556 1 1.91706 7.71054 19.0069
987 2 5.99304 15.4304 11.8028
187 2 5.99785 15.4324 17.6873
890 2 3.92983 7.70958 13.3497
499 2 8.00694 7.70972 10.4316
578 2 8.1429 7.7123 18.9628
561 2 2.09709 9.25709 20.4392
563 1 1.07913 9.25635 22.0383
565 2 0.0425425 10.798 21.9926
1952 2 1.97434 9.25507 23.6677
572 1 4.12247 9.25726 20.6578
574 1 4.96126 10.7992 23.5085
575 2 4.0702 10.8003 21.8785
581 2 6.08796 9.25689 20.5107
582 1 7.95962 9.25525 23.4097
583 1 7.12525 10.8009 20.5595
585 2 8.01599 10.7987 22.1899
1947 2 5.99716 9.25474 23.5587
592 2 10.1193 9.25936 20.4023
593 1 10.9964 9.25499 22.0367
595 2 12.0445 10.788 22.103
1956 2 9.98321 9.25151 23.6354
161 1 1.07489 12.3422 22.0379
168 2 0.0410867 13.8849 21.9921
169 2 2.09549 12.3451 20.4404
2812 2 1.97278 12.3425 23.6665
160 1 4.12217 12.3443 20.6578
162 1 4.96364 13.8854 23.5094
163 1 7.96565 12.3435 23.4065
165 1 7.12554 13.888 20.5608
171 2 4.0702 13.8865 21.8798
174 2 6.08776 12.3448 20.5097
178 2 8.01432 13.8883 22.1917
2807 2 6.00009 12.3418 23.5591
166 1 11.0428 12.3541 22.0422
2817 2 10.1069 12.343 26.2874
177 2 10.1352 12.3462 20.4128
2816 2 9.99355 12.3433 23.6326
1939 1 1.91804 10.7995 24.8872
1941 1 1.08303 9.25455 27.9165
1948 2 0.0452483 10.7971 27.8678
1949 2 2.10033 9.25374 26.3163
1950 2 3.94501 10.7989 25.1087
1940 1 4.12561 9.25464 26.5373
1942 1 4.9588 10.7983 29.3888
1943 1 7.95828 9.25461 29.2875
1945 1 7.12441 10.7995 26.4387
1951 2 4.0705 10.7982 27.7575
1954 2 6.08948 9.25471 26.3891
1958 2 8.01422 10.7994 28.0694
1944 1 10.1627 10.799 25.0649
1946 1 11.0 9.25426 27.9115
1953 2 12.0374 10.7973 27.969
1955 2 8.14141 10.8003 24.8388
1957 2 10.1047 9.25209 26.2848
2799 1 1.91685 13.8856 24.887
2801 1 1.08002 12.3414 27.916
2808 2 0.0431496 13.8844 27.8672
2809 2 2.10037 12.3418 26.3174
2810 2 3.9439 13.8866 25.1087
2800 1 4.12478 12.3427 26.5379
2802 1 4.9572 13.8863 29.3906
2803 1 7.95705 12.344 29.2888
2805 1 7.12349 13.8877 26.4401
2811 2 4.06938 13.8861 27.7588
2814 2 6.0883 12.3434 26.3902
2818 2 8.01339 13.8885 28.0709
2804 1 10.1616 13.889 25.0641
2806 1 11.0037 12.3438 27.9151
2813 2 12.0472 13.8828 27.9735
2815 2 8.14158 13.8886 24.8406
181 1 1.07235 15.4287 22.0382
180 1 4.12089 15.4283 20.6585
173 2 12.0914 13.8831 22.102
186 1 11.0511 15.4183 22.0459
197 2 10.1374 15.4276 20.4173
2821 1 1.07808 15.4282 27.9171
2820 1 4.12315 15.4294 26.5388
1931 2 4.07123 7.70975 27.7569
2826 1 11.0109 15.4269 27.9184
1930 2 3.94598 7.71053 25.109
569 1 4.96084 7.71075 23.5084
570 2 4.07074 7.71185 21.8781
1919 1 1.92024 7.7105 24.887
2832 2 1.97013 15.4293 23.6668
1922 1 4.96124 7.70983 29.3873
576 1 7.12303 7.71191 20.5611
590 2 12.0406 7.71382 22.0885
2641 1 1.07099 18.5126 4.40215
2649 2 2.0911 18.5142 2.8034
2652 2 1.96814 18.514 0.154276
3699 1 1.9107 16.969 1.37392
837 2 10.1165 21.5994 8.59029
3708 2 0.0348042 16.9701 4.34861
835 2 8.14971 23.1418 7.18759
3710 2 3.93851 16.9718 1.59581
836 2 9.99463 21.6004 5.9678
2640 1 4.11801 18.5133 3.02523
2647 2 5.99517 18.5154 0.0465261
2654 2 6.0825 18.5139 2.8753
815 2 8.14369 20.0577 7.19362
3705 1 7.12195 16.9718 2.92398
3707 2 5.99424 15.4302 0.0438893
3711 2 4.06219 16.9706 4.2451
804 1 10.1771 20.0448 7.38608
3718 2 8.01271 16.972 4.55555
2646 1 11.0151 18.5192 4.39301
2656 2 9.9902 18.5186 0.118958
2657 2 10.1177 18.521 2.76762
3704 1 10.1686 16.977 1.54648
3706 1 10.9976 15.4374 4.39793
3713 2 12.0456 16.9744 4.45138
3715 2 8.14132 16.9771 1.32545
2663 1 7.95379 21.5983 5.75976
3717 2 10.107 15.436 2.76753
2639 1 1.91135 20.0563 1.37593
2648 2 0.0392765 20.0591 4.35307
2650 2 3.9383 20.0577 1.59843
2661 1 1.07729 21.6008 4.40609
2669 2 2.09351 21.6016 2.80595
2672 2 1.9686 21.6018 0.158135
2645 1 7.12069 20.056 2.91834
2651 2 4.06246 20.0563 4.24711
2658 2 8.00913 20.0541 4.54974
2660 1 4.11921 21.6002 3.02763
2667 2 5.99747 21.6004 0.0475384
2674 2 6.08316 21.5996 2.87397
2644 1 10.1771 20.0586 1.54194
2653 2 12.0608 20.0578 4.45451
2655 2 8.14545 20.061 1.32501
2666 1 11.0274 21.6014 4.37819
2676 2 9.99604 21.6012 0.115856
2677 2 10.1269 21.6032 2.75865
809 2 2.0839 18.5123 8.68172
812 2 1.95743 18.5116 6.03579
1379 1 1.89601 16.9669 7.25545
1389 2 2.08664 15.4286 8.68364
1390 2 3.93085 16.9727 7.47556
2642 1 4.95142 20.0552 5.87799
800 1 4.11581 18.516 8.90017
807 2 5.98938 18.512 5.92795
814 2 6.08615 18.5193 8.75954
834 2 6.09726 21.6033 8.77302
1385 1 7.11954 16.9733 8.8002
824 1 10.1831 23.1423 7.36168
827 2 5.99117 21.5976 5.93042
2643 1 7.95322 18.5138 5.77186
3702 1 4.94938 16.9693 5.87703
820 1 4.12591 21.6049 8.91221
816 2 9.99032 18.5182 5.99075
817 2 10.1244 18.5227 8.64471
1384 1 10.17 16.9703 7.42897
1395 2 8.1426 16.9769 7.20443
1396 2 9.98371 15.4339 5.99975
805 1 7.13168 20.0577 8.79565
799 1 1.9059 20.0551 7.25595
810 2 3.93562 20.0578 7.47962
829 2 2.09218 21.6007 8.68924
832 2 1.96625 21.6001 6.03892
2659 1 1.9122 23.1447 1.37824
2678 2 8.01063 23.1414 4.5459
2664 1 10.182 23.1428 1.53681
819 1 1.90872 23.1414 7.26117
2662 1 4.95536 23.142 5.8796
2670 2 3.94044 23.1441 1.60069
2665 1 7.12205 23.142 2.91511
2671 2 4.06529 23.1432 4.24935
2673 2 12.0683 23.1423 4.45729
830 2 3.94201 23.1414 7.48516
825 1 7.14578 23.1404 8.79443
3716 2 9.98528 15.4326 0.117673
1380 1 4.11476 15.4303 8.9019
1394 2 6.08133 15.4316 8.75402
2002 1 4.95777 20.0579 9.29361e-04
719 2 2.07969 18.5076 14.5506
720 2 1.94222 18.4935 11.8998
801 1 1.04865 18.499 10.2683
979 1 1.89292 16.9533 13.1316
1156 2 9.98232 21.6217 17.7646
990 2 3.93499 16.9715 13.3527
1135 2 8.14013 20.055 19.0086
1124 1 10.1998 20.0451 19.215
1388 2 0.0170955 16.9555 10.2203
728 2 6.0032 18.5145 11.8109
739 2 6.09471 18.5305 14.6333
803 1 7.96297 18.5093 11.6418
985 1 7.11864 16.9735 14.6818
1144 1 10.2031 23.1383 19.2046
758 2 12.1027 23.1432 16.2129
1382 1 4.9548 16.972 11.7536
756 1 11.0929 21.5872 16.2205
1391 2 4.06614 16.9764 10.1231
1398 2 8.01513 16.9711 10.4298
750 2 9.9905 18.5258 11.8738
751 2 10.0953 18.5429 14.5308
806 1 11.0182 18.4935 10.2738
984 1 10.1625 16.9787 13.3104
995 2 8.1408 16.9895 13.0825
753 2 12.0756 20.0432 16.1992
1147 2 5.96998 21.6716 17.5971
1139 1 1.8525 23.1422 19.0694
1393 2 12.0545 16.9556 10.3307
718 1 1.86885 20.0283 13.1032
723 2 2.07762 21.6131 14.5794
724 2 1.94362 21.5946 11.9174
726 1 1.87746 23.1402 13.1243
729 2 3.9102 20.0331 13.3193
735 2 3.93097 23.141 13.3724
808 2 0.0241864 20.0502 10.2306
821 1 1.05691 21.5942 10.2742
733 2 6.00063 21.6013 11.84
738 1 7.14118 20.0698 14.6987
743 2 6.02736 21.5633 14.617
802 1 4.9697 20.0544 11.7405
811 2 4.0677 20.0603 10.1243
818 2 8.02937 20.0574 10.4332
823 1 7.93754 21.5851 11.6407
740 2 8.16596 20.1186 13.0982
745 2 8.35811 23.1429 12.985
746 1 8.82587 23.1466 14.7691
749 1 10.177 20.0471 13.2847
754 2 10.0734 21.5201 11.7739
755 2 10.0574 21.684 14.6177
747 2 7.91763 23.14 16.3627
813 2 12.093 20.0173 10.335
826 1 11.0892 21.543 10.1363
179 1 1.89945 16.9688 19.0109
190 2 3.93427 16.9822 19.229
744 1 7.95858 21.5321 17.69
721 1 1.07219 18.5122 16.1604
742 2 7.98255 20.0954 16.3552
988 2 0.0320086 16.9725 16.1087
1132 2 1.96679 18.5177 17.7918
822 1 4.95987 23.1418 11.7795
730 1 4.11601 18.4844 14.7795
741 1 7.95929 18.4983 17.5394
737 2 4.28442 23.1409 15.9664
982 1 4.96069 16.9778 17.6388
734 1 4.04584 21.5003 14.6895
991 2 4.07074 16.9613 16.0055
998 2 8.01357 16.969 16.3138
1127 2 5.98885 18.5352 17.6808
184 1 10.1919 16.9624 19.1923
195 2 8.15053 16.9776 18.9685
732 2 4.01264 20.0354 16.005
752 1 11.003 18.5186 16.1582
731 1 4.94713 20.0796 17.6171
993 2 12.037 16.9839 16.1886
1136 2 9.98074 18.5327 17.7606
722 2 0.0386096 20.0581 16.1197
725 1 1.05577 21.5991 16.1893
1152 2 2.00678 21.6301 17.7963
1119 1 1.91349 20.0603 19.0144
1130 2 3.9425 20.077 19.2328
831 2 4.07686 23.1415 10.1422
838 2 8.03217 23.1409 10.4422
736 1 4.7807 23.14 17.8128
757 1 10.4534 23.1394 12.682
833 2 12.0348 23.1412 10.3796
1150 2 3.876 23.1419 19.3559
1155 2 8.12781 23.1401 18.9743
996 2 9.98154 15.4324 11.8733
997 2 10.1029 15.4402 14.5272
196 2 9.99079 15.4351 17.7584
986 1 11.0071 15.4372 16.1555
2037 2 10.1276 21.6023 26.2922
188 2 0.0375196 16.9711 21.9892
189 2 2.09279 15.43 20.4391
1121 1 1.07093 18.5132 22.0426
1129 2 2.09082 18.5215 20.4417
2012 2 1.96574 18.5171 23.6721
2005 1 7.12337 20.0595 26.4495
2026 1 11.0239 21.5993 27.9199
182 1 4.95721 16.9694 23.5104
2015 2 8.14698 20.063 24.8539
185 1 7.1253 16.9743 20.5642
191 2 4.06357 16.9698 21.8805
194 2 6.0869 15.4319 20.5094
198 2 8.01422 16.9789 22.1949
1120 1 4.11456 18.5093 20.6566
1123 1 7.96302 18.5148 23.4236
1134 2 6.07854 18.514 20.5062
2007 2 5.99759 18.5122 23.5622
2827 2 5.99972 15.4299 23.5599
2013 2 12.0586 20.0551 27.9752
193 2 12.0559 16.9797 22.1123
2004 1 10.1789 20.0593 25.0749
1126 1 11.0169 18.5131 22.0509
1137 2 10.1295 18.5081 20.4145
2016 2 9.98882 18.5233 23.6431
2836 2 9.99524 15.4331 23.6348
1128 2 0.0290958 20.0528 21.9947
1141 1 1.05603 21.5963 22.0635
1149 2 2.07509 21.5964 20.4656
2032 2 1.96357 21.601 23.6826
1122 1 4.95729 20.051 23.5323
1125 1 7.09615 20.0596 20.6029
1131 2 4.06631 20.0434 21.8978
1138 2 8.00925 20.0655 22.2089
1140 1 4.0996 21.5872 20.7212
1143 1 7.96428 21.6008 23.4375
1154 2 6.0663 21.6069 20.4711
2027 2 5.99456 21.5964 23.5604
1133 2 12.0562 20.0556 22.0926
1146 1 11.0233 21.5982 22.0539
1157 2 10.126 21.5993 20.4157
2036 2 9.9946 21.6032 23.6443
2001 1 1.07521 18.5146 27.9217
2009 2 2.09369 18.516 26.3225
2819 1 1.91267 16.9706 24.889
2034 2 6.08348 21.6021 26.3911
2828 2 0.0403597 16.9709 27.8702
2829 2 2.09808 15.4295 26.3183
2830 2 3.94017 16.9738 25.1108
2000 1 4.12065 18.5145 26.5447
2003 1 7.96044 18.5165 29.2952
2014 2 6.08553 18.5173 26.3913
2023 1 7.96392 21.6008 29.296
2822 1 4.95615 16.9725 29.3934
2020 1 4.11899 21.6012 26.5552
2825 1 7.12431 16.9743 26.443
2831 2 4.06696 16.9719 27.7618
2834 2 6.08714 15.4314 26.3913
2838 2 8.01391 16.9758 28.0739
2006 1 11.0153 18.5143 27.9198
2017 2 10.1155 18.5192 26.2943
2824 1 10.1713 16.975 25.0706
2018 2 8.0152 20.0599 28.0768
2833 2 12.0487 16.9701 27.9793
2835 2 8.14567 16.9752 24.8452
2011 2 4.06593 20.0569 27.768
1999 1 1.90731 20.0552 24.9009
2008 2 0.0412696 20.0597 27.8728
2010 2 3.93676 20.0584 25.1222
2021 1 1.0757 21.6028 27.9265
2029 2 2.09329 21.6022 26.3284
2837 2 10.1099 15.4313 26.2921
1145 1 7.11332 23.1408 20.5939
1151 2 4.06164 23.1423 21.9212
1158 2 8.01057 23.1413 22.2085
1153 2 12.0667 23.1375 22.0903
2038 2 8.01849 23.1428 28.0762
183 1 7.96675 15.4312 23.4091
2823 1 7.95815 15.4318 29.2916
1439 1 1.91268 26.2304 1.37626
1441 1 1.07855 24.6856 4.40646
1448 2 0.0396667 26.2276 4.35586
1449 2 2.09497 24.6871 2.80619
1450 2 3.94184 26.2284 1.59775
1452 2 1.9693 24.6873 0.157462
3237 2 10.1321 27.762 8.6464
2668 2 0.0404244 23.144 4.35596
3056 2 9.99454 30.8492 6.00089
1440 1 4.12157 24.6859 3.02711
1445 1 7.12655 26.2276 2.91828
1447 2 6.00049 24.6857 0.0470092
1451 2 4.06724 26.2286 4.24668
1454 2 6.08596 24.6859 2.87355
1458 2 8.01532 26.2286 4.54976
3049 2 2.09795 30.8471 8.68158
3937 2 10.1216 30.8491 2.76922
3236 2 9.99885 27.7659 5.99174
1444 1 10.1836 26.2275 1.5419
1446 1 11.03 24.6848 4.37838
1453 2 12.0661 26.2269 4.45434
1455 2 8.152 26.2256 1.32475
1456 2 9.99948 24.6835 0.115679
1457 2 10.1305 24.6834 2.75835
3235 2 8.1521 29.3056 7.20568
3936 2 9.99792 30.8509 0.117821
2675 2 8.14863 23.1433 1.32316
1459 1 1.91409 29.3131 1.37355
1461 1 1.07819 27.7692 4.40276
1468 2 0.0388798 29.3109 4.35296
1469 2 2.09596 27.7707 2.80306
1470 2 3.94394 29.3108 1.5943
1472 2 1.9707 27.7709 0.153495
1460 1 4.12439 27.7701 3.0234
1465 1 7.13173 29.3104 2.92385
1467 2 6.00249 27.7692 0.0454714
1471 2 4.06948 29.3116 4.24382
1474 2 6.08953 27.7701 2.87442
1478 2 8.02202 29.3098 4.55581
1464 1 10.1817 29.3091 1.54715
1466 1 11.0237 27.7673 4.39387
1473 2 12.0579 29.3103 4.45267
1475 2 8.15232 29.3078 1.32574
1476 2 10.0007 27.7671 0.118699
1477 2 10.1281 27.7656 2.76736
3224 1 10.1799 29.3141 7.43028
3220 1 4.1257 27.7633 8.901
3199 1 1.91178 26.2258 7.25674
3209 2 2.09436 24.6822 8.68974
3210 2 3.94246 26.2225 7.48034
3212 2 1.96849 24.6828 6.03902
1463 1 7.96115 27.7688 5.77264
1442 1 4.95629 26.2278 5.87755
1443 1 7.95673 24.6848 5.75994
3234 2 6.09568 27.7622 8.76244
3200 1 4.1294 24.6771 8.91243
3205 1 7.13926 26.223 8.79786
3207 2 5.99425 24.6846 5.93024
3214 2 6.10111 24.6797 8.77411
3227 2 5.99716 27.769 5.92784
3225 1 7.13134 29.3069 8.80316
3204 1 10.1829 26.2399 7.38706
3215 2 8.14964 26.2259 7.19444
3216 2 9.99759 24.6833 5.96816
3217 2 10.1194 24.6854 8.59077
3219 1 1.91262 29.3092 7.25333
3229 2 2.09352 27.7661 8.68175
3230 2 3.9432 29.3056 7.4756
3232 2 1.9701 27.7667 6.03364
1462 1 4.9588 29.3119 5.87465
3921 1 1.07996 30.8515 4.40034
3927 2 6.00259 30.8518 0.0429175
3926 1 11.0127 30.8486 4.40059
3052 2 1.97378 30.8487 6.0302
3040 1 4.12623 30.8473 8.90289
3054 2 6.09198 30.8477 8.75705
2022 1 4.96071 23.1438 0.00439274
3282 1 4.96184 26.2285 5.69348e-04
828 2 0.0232389 23.1399 10.234
2319 1 1.8727 26.2495 13.1041
2329 2 2.07893 24.6721 14.5794
2330 2 3.91531 26.2466 13.3199
2332 2 1.94557 24.6849 11.917
3201 1 1.05792 24.6843 10.2742
3208 2 0.0242894 26.2295 10.2322
2353 2 12.0564 29.3096 16.2124
727 2 0.029422 23.1443 16.1296
3852 2 1.9726 30.8464 17.7869
2325 1 7.14449 26.2104 14.7007
2327 2 6.00483 24.68 11.8408
2334 2 6.03127 24.7163 14.6178
3202 1 4.97556 26.2275 11.7419
3203 1 7.94224 24.6969 11.6422
3211 2 4.07374 26.2211 10.1255
3218 2 8.03758 26.2247 10.4357
2177 2 10.1163 30.8452 14.5347
2324 1 10.1834 26.2381 13.2913
2335 2 8.17233 26.1666 13.1018
2336 2 10.0773 24.7621 11.777
2337 2 10.0581 24.6079 14.6231
3206 1 11.0904 24.7401 10.1381
3213 2 12.0964 26.2645 10.3367
2339 1 1.90138 29.3216 13.1295
2349 2 2.08538 27.7726 14.5506
2350 2 3.94211 29.3067 13.3525
2352 2 1.95111 27.7823 11.8993
3221 1 1.0585 27.7746 10.2677
3228 2 0.0244227 29.3179 10.2225
2345 1 7.12448 29.3062 14.6826
2347 2 6.01172 27.766 11.8132
2354 2 6.0994 27.7501 14.635
3222 1 4.9632 29.3079 11.7545
3223 1 7.97214 27.7724 11.6463
3231 2 4.07454 29.3029 10.1241
3238 2 8.02697 29.3102 10.4336
2344 1 10.175 29.3069 13.3158
2355 2 8.15072 29.293 13.0869
2356 2 10.0004 27.7585 11.8801
2357 2 10.112 27.7461 14.5375
3226 1 11.0238 27.7892 10.2769
3233 2 12.0604 29.3263 10.3379
2346 1 11.0173 27.7727 16.1663
1555 2 8.14945 29.2999 18.969
1519 1 1.9157 26.2211 19.0151
1530 2 3.94627 26.2036 19.2344
1532 2 2.00717 24.6542 17.7956
2321 1 1.05526 24.6887 16.1888
2328 2 0.0347105 26.2287 16.1171
1527 2 5.97154 24.6077 17.5988
2320 1 4.04832 24.7799 14.69
2322 1 4.94975 26.1997 17.6184
2323 1 7.95963 24.7468 17.6924
2331 2 4.01692 26.2441 16.0055
2338 2 7.98635 26.1834 16.3569
1556 2 9.98609 27.7494 17.7636
1544 1 10.1825 29.3121 19.195
1524 1 10.2025 26.2315 19.2185
1535 2 8.14425 26.2253 19.0103
1536 2 9.98491 24.6593 17.7674
2326 1 11.0951 24.7009 16.2238
2333 2 12.0827 26.243 16.2067
1539 1 1.91213 29.3069 19.0096
1550 2 3.94322 29.2956 19.2308
1552 2 1.97683 27.7604 17.7891
2341 1 1.07766 27.7685 16.16
2348 2 0.0351581 29.3078 16.109
1547 2 5.99284 27.7431 17.6813
2340 1 4.1211 27.7941 14.7801
2342 1 4.96588 29.3008 17.638
2343 1 7.96273 27.7801 17.5386
2351 2 4.07508 29.3177 16.0053
2358 2 8.01829 29.3109 16.3151
2167 2 6.00211 30.8488 11.805
2174 2 6.09023 30.8501 14.6323
2176 2 9.99236 30.8504 11.8813
2161 1 1.07524 30.8479 16.1582
3847 2 6.00155 30.8466 17.6862
2166 1 11.0142 30.8504 16.1638
3856 2 9.99363 30.8474 17.7631
748 1 6.20614 23.1391 15.541
1148 2 0.0262945 23.1426 21.9919
1521 1 1.05501 24.6888 22.063
1528 2 0.0254151 26.2326 21.9928
1529 2 2.07551 24.6888 20.4657
3292 2 1.9628 24.6862 23.682
3317 2 10.134 27.7692 26.2906
3134 2 6.09307 30.8511 26.3908
3129 2 2.09895 30.8521 26.317
3136 2 10.0011 30.8514 23.6382
1520 1 4.10169 24.6962 20.7213
1522 1 4.96199 26.233 23.5334
1523 1 7.96821 24.6827 23.4378
1525 1 7.10166 26.222 20.6052
1531 2 4.06921 26.2388 21.8997
1534 2 6.06903 24.6765 20.4726
1538 2 8.01589 26.2175 22.2106
3287 2 5.99808 24.6872 23.5612
3854 2 6.09194 30.8484 20.5142
1526 1 11.029 24.6809 22.0542
1533 2 12.0661 26.2238 22.0895
1537 2 10.1301 24.6774 20.4175
3296 2 9.99972 24.6805 23.6443
1541 1 1.07458 27.768 22.0415
1548 2 0.0387187 29.311 21.9869
1549 2 2.09542 27.7592 20.4416
3312 2 1.96739 27.7669 23.6716
1540 1 4.12007 27.7706 20.6585
1542 1 4.96228 29.3121 23.5122
1543 1 7.97173 27.7683 23.4252
1545 1 7.12954 29.3064 20.5691
1551 2 4.06761 29.3101 21.8827
1554 2 6.08358 27.7669 20.5099
1558 2 8.02377 29.3049 22.1974
3307 2 6.00467 27.7707 23.5628
1546 1 11.0295 27.7692 22.0503
1553 2 12.0653 29.3123 22.0942
1557 2 10.1323 27.7689 20.4186
3316 2 10.0017 27.7641 23.6422
3315 2 8.15587 29.3083 24.8471
2028 2 0.0390133 23.1458 27.8722
2030 2 3.937 23.1443 25.1319
3279 1 1.9075 26.2306 24.901
3281 1 1.07528 24.6881 27.9263
3288 2 0.0380036 26.2304 27.8706
3289 2 2.09371 24.688 26.3283
3290 2 3.939 26.2278 25.1219
3313 2 12.0632 29.3139 27.9713
3306 1 11.0263 27.7703 27.9208
2031 2 4.06593 23.1444 27.7735
3127 2 6.0048 30.8517 23.5611
3280 1 4.12064 24.6867 26.5547
1142 1 4.95967 23.1427 23.5458
3283 1 7.96703 24.685 29.2957
3285 1 7.12873 26.2262 26.4493
3291 2 4.06868 26.2302 27.7681
3294 2 6.0859 24.6856 26.3912
3298 2 8.02228 26.2259 28.076
3304 1 10.186 29.3112 25.0696
2033 2 12.0649 23.1407 27.9725
2035 2 8.14776 23.1434 24.854
3284 1 10.1875 26.2264 25.0738
3286 1 11.0273 24.6843 27.9201
3293 2 12.0652 26.2271 27.9721
3295 2 8.15519 26.2243 24.8547