# LAMMPS data file written by OVITO Basic 3.7.11
3998 atoms
2 atom types
0.0 48.4282885418 xlo xhi
0.0 30.8572093325 ylo yhi
0.0 29.396923244 zlo zhi

Atoms  # atomic

3919 1 1.91759 1.5376 1.37141
3070 2 3.94353 4.62061 7.47217
3928 2 0.0429875 1.53613 4.34694
3075 2 8.14011 4.62182 7.20321
3930 2 3.94717 1.53541 1.5926
3932 2 1.97379 -0.0043866 0.150449
3941 1 1.0855 3.07639 4.39857
3949 2 2.10244 3.07706 2.79763
3952 2 1.97887 3.07847 0.148589
3920 1 4.12769 -0.00476373 3.0208
3925 1 7.13222 1.53688 2.92382
3059 1 1.9197 4.61944 7.24715
3931 2 4.07254 1.53646 4.24159
3934 2 6.09329 -0.00533578 2.87525
3938 2 8.02247 1.53666 4.55577
3940 1 4.1294 3.07861 3.01985
3947 2 6.00079 3.07924 0.0402613
3954 2 6.09412 3.07919 2.87453
3924 1 10.1755 1.53338 1.54456
477 2 1.98172 6.16365 6.02323
3933 2 12.0458 1.53601 4.45058
3935 2 8.14835 1.53422 1.32266
3064 1 10.1688 4.62166 7.42691
507 2 10.1065 6.16685 8.6448
3946 1 10.9995 3.07354 4.39695
3956 2 9.99327 3.07927 0.114007
3957 2 10.1127 3.07544 2.76418
506 2 9.98703 6.16645 5.99855
2721 1 1.08475 6.16369 4.39564
2728 2 0.0497637 7.70595 4.33473
2729 2 2.1031 6.16371 2.7956
476 2 2.09231 6.16176 8.6783
2732 2 1.98094 6.16499 0.148005
3939 1 1.92167 4.62162 1.3692
3948 2 0.051157 4.61875 4.33788
3950 2 3.94857 4.6209 1.5917
2720 1 4.12842 6.16549 3.01942
485 2 5.99467 6.1671 5.91938
2727 2 5.99811 6.16624 0.039239
3942 1 4.95834 4.62313 5.87149
2734 2 6.09249 6.16596 2.87409
3065 1 7.12181 4.62261 8.80251
3945 1 7.13039 4.62314 2.92272
3951 2 4.07106 4.62176 4.23947
3958 2 8.02109 4.62312 4.55422
2723 1 7.95808 6.16675 5.77533
2726 1 10.993 6.16311 4.39236
2733 2 12.0246 7.70909 4.43226
2735 2 8.13961 7.70908 1.31934
2736 2 9.98754 6.16579 0.112485
2737 2 10.1063 6.1634 2.76032
3944 1 10.1684 4.61898 1.54186
3953 2 12.0299 4.6192 4.44094
3955 2 8.14358 4.62043 1.32008
3039 1 1.91715 1.53394 7.25047
496 2 6.08263 6.16441 8.75247
3050 2 3.94556 1.53125 7.47369
3077 2 10.1135 3.08076 8.6502
3069 2 2.10132 3.07155 8.67731
3072 2 1.98264 3.07333 6.02551
3076 2 9.98823 3.07789 6.00025
3045 1 7.12756 1.53477 8.80461
3057 2 10.1205 -0.00270547 8.65268
487 1 4.11738 6.16434 8.90417
3060 1 4.12514 3.07602 8.90112
3067 2 5.9976 3.08048 5.92233
3074 2 6.08888 3.07657 8.75413
3922 1 4.96087 1.53685 5.87334
3923 1 7.9656 -0.0056204 5.77736
3943 1 7.9611 3.07966 5.77674
3044 1 10.1741 1.53784 7.4289
3055 2 8.14575 1.53403 7.20578
2724 1 10.1632 7.7089 1.54073
3047 2 6.00071 -0.00552429 5.92501
3929 2 2.09843 -0.00496732 2.80049
2159 1 1.90984 1.5429 13.1306
2169 2 2.09627 -0.00560937 14.5591
2170 2 3.94179 1.536 13.3518
2172 2 1.96663 -8.63861e-04 11.9086
2189 2 2.09633 3.07686 14.5583
2192 2 1.96616 3.08319 11.9101
3041 1 1.07309 -0.00412094 10.2773
3048 2 0.0388685 1.53691 10.2234
3061 1 1.0805 3.0764 10.2762
2165 1 7.12761 1.53724 14.6863
2182 1 4.9604 4.6235 17.6293
883 1 7.96113 6.16851 17.5363
2187 2 5.99544 3.07954 11.8038
2194 2 6.0882 3.07949 14.6357
3042 1 4.96197 1.53446 11.7534
3043 1 7.96606 -0.00509692 11.6561
3051 2 4.07131 1.53264 10.1231
3058 2 8.01804 1.53579 10.4358
3063 1 7.95938 3.07952 11.6543
2164 1 10.1712 1.5317 13.3087
2175 2 8.14402 1.53154 13.0858
2191 2 4.06668 4.62402 16.0003
3875 2 8.14537 4.62313 18.9645
2196 2 9.98621 3.07931 11.8769
2197 2 10.1101 3.07259 14.5284
3046 1 11.015 0.00853786 10.2821
3053 2 12.0519 1.54895 10.3333
3066 1 11.0086 3.08872 10.2789
478 1 1.04452 6.17162 10.2716
479 2 0.00814689 7.70454 10.2065
3864 1 10.1747 4.62454 19.1885
889 2 2.09195 6.1638 14.5591
880 1 4.11737 6.16748 14.777
892 2 1.95315 6.16741 11.9018
2179 1 1.89831 4.62964 13.1295
2190 2 3.93412 4.62465 13.3506
3068 2 0.042398 4.60973 10.2065
2193 2 12.0344 4.62045 16.201
893 2 12.0257 7.71051 16.1902
498 1 7.95154 6.16581 11.6523
566 2 5.9966 6.16834 17.6808
885 1 7.11972 7.71091 14.6861
887 2 5.98889 6.16632 11.8028
894 2 6.08403 6.16647 14.6353
2185 1 7.12328 4.6243 14.686
3062 1 4.95361 4.62128 11.7537
3071 2 4.06817 4.61884 10.121
3078 2 8.01183 4.62258 10.4338
508 1 10.9933 6.16722 10.2757
886 1 10.9961 6.16326 16.1541
884 1 10.1525 7.70665 13.3029
895 2 8.13112 7.70753 13.0815
896 2 9.97846 6.16513 11.8746
897 2 10.1052 6.16182 14.5233
2184 1 10.1614 4.61674 13.3061
2195 2 8.13749 4.62014 13.0839
3073 2 12.0468 4.63297 10.3248
3870 2 3.94669 4.62112 19.2313
2168 2 0.0409641 1.53325 16.11
2181 1 1.08689 3.07018 16.1627
3839 1 1.91859 1.53169 19.0101
3850 2 3.94766 1.52985 19.2331
587 2 9.99024 6.16785 17.7595
3872 2 1.98395 3.07182 17.7904
2160 1 4.12453 0.00327742 14.7803
2162 1 4.96328 1.53439 17.6325
2163 1 7.96637 -0.00170033 17.5406
2171 2 4.07096 1.53989 16.002
2178 2 8.01963 1.53667 16.3174
2180 1 4.12229 3.08345 14.7782
2183 1 7.96361 3.08154 17.5378
3859 1 1.92137 4.61917 19.0078
3867 2 5.99893 3.07959 17.6826
2188 2 0.0541633 4.60935 16.1261
2173 2 12.0473 1.5362 16.2129
2186 1 11.0029 3.07495 16.1585
3844 1 10.1787 1.53864 19.1924
3855 2 8.14919 1.53491 18.968
888 2 0.0452297 7.70369 16.1301
3876 2 9.99125 3.079 17.7614
881 1 1.07621 6.15988 16.1611
558 2 1.97608 6.16359 17.79
2198 2 8.01912 4.62427 16.3153
898 2 8.01835 7.71232 16.3143
1934 2 6.09043 6.16529 26.3894
3152 2 1.97683 3.07818 23.6672
3155 2 8.14716 4.62159 24.84
3848 2 0.0438513 1.53767 21.9868
3153 2 12.054 4.62942 27.961
3861 1 1.08452 3.07893 22.0371
3869 2 2.10328 3.07496 20.4389
3144 1 10.1749 4.62291 25.0627
3147 2 6.00331 3.08042 23.5599
1938 2 8.01569 7.71006 28.0683
3842 1 4.96607 1.53746 23.5115
1923 1 7.96125 6.16559 29.287
3845 1 7.12857 1.53557 20.5661
3851 2 4.07321 1.53539 21.8819
1937 2 10.1154 6.16586 26.2825
3858 2 8.02364 1.53594 22.1942
3860 1 4.12768 3.07814 20.6609
3863 1 7.96895 3.07994 23.4126
3874 2 6.09144 3.07837 20.514
1935 2 8.14137 7.70809 24.8387
3156 2 9.99849 3.0818 23.6348
1920 1 4.12712 6.16556 26.5374
3853 2 12.0614 1.54191 22.0915
3150 2 3.94743 4.62125 25.1095
3866 1 11.0232 3.08541 22.0383
3877 2 10.124 3.08218 20.4111
557 2 2.10214 6.16424 20.4385
559 1 1.08649 6.166 22.038
560 2 0.0507388 7.70814 21.9955
1932 2 1.97878 6.16545 23.668
3868 2 0.0493512 4.62251 21.9916
568 1 4.12531 6.1667 20.6594
1933 2 12.0434 7.71278 27.9611
1926 1 11.0073 6.16787 27.9122
3148 2 0.049222 4.62227 27.8674
577 2 6.08898 6.16653 20.5122
579 1 7.96311 6.16678 23.4109
580 2 8.01747 7.71105 22.1899
1927 2 5.99899 6.1676 23.5584
3862 1 4.96401 4.62295 23.5098
3865 1 7.12667 4.62329 20.563
3871 2 4.07202 4.62231 21.8803
3878 2 8.02041 4.62336 22.192
588 2 10.1169 6.1699 20.4062
589 1 11.0071 6.1675 22.0366
3139 1 1.92055 4.62153 24.8873
1936 2 9.99028 6.16644 23.6346
3873 2 12.059 4.63243 22.0887
3119 1 1.91776 1.53645 24.888
1924 1 10.166 7.7098 25.0643
3128 2 0.0443778 1.53843 27.8669
3158 2 8.01923 4.62196 28.0684
3130 2 3.94661 1.5355 25.1097
3141 1 1.0853 3.07932 27.9162
3149 2 2.10168 3.07811 26.316
3120 1 4.12757 -0.00508738 26.5381
3122 1 4.96315 1.53663 29.3893
3142 1 4.9627 4.62211 29.3878
3125 1 7.13198 1.53635 26.4399
3131 2 4.07184 1.53647 27.759
3151 2 4.07156 4.62175 27.7577
3138 2 8.02265 1.53546 28.0705
3140 1 4.12845 3.07854 26.5376
3143 1 7.96504 3.07853 29.2888
3154 2 6.0926 3.07821 26.3901
3124 1 10.1823 1.53834 25.0652
1929 2 2.10213 6.16455 26.3156
3133 2 12.0594 1.54324 27.9679
3135 2 8.15325 1.53644 24.8426
1928 2 0.050983 7.70821 27.8684
3146 1 11.017 3.08393 27.9147
3157 2 10.1244 3.08142 26.2845
3145 1 7.12854 4.62246 26.4381
1921 1 1.08695 6.16523 27.9162
1925 1 7.12506 7.71038 26.4382
3121 1 1.08169 -0.00389692 27.917
2739 1 1.91782 10.7983 1.36956
2741 1 1.0819 9.25063 4.39577
2748 2 0.0487935 10.794 4.33478
2749 2 2.10118 9.25234 2.7959
2750 2 3.94463 10.7987 1.59254
2752 2 1.97878 9.25441 0.147736
2740 1 4.12595 9.2544 3.02014
2745 1 7.12465 10.799 2.92297
2747 2 5.99585 9.25471 0.0399574
2751 2 4.06641 10.7979 4.24063
2754 2 6.09 9.25411 2.87435
2758 2 8.01664 10.7994 4.55363
2744 1 10.1603 10.8012 1.54208
2746 1 10.991 9.2549 4.39066
2753 2 12.0235 10.8013 4.43336
2755 2 8.13759 10.7997 1.32041
2756 2 9.98342 9.25445 0.113438
2757 2 10.1037 9.25448 2.75949
3679 1 1.91331 13.8839 1.37194
3681 1 1.07471 12.3413 4.40087
3688 2 0.035817 13.882 4.34254
3689 2 2.09624 12.3416 2.79944
3690 2 3.94163 13.8863 1.59392
3692 2 1.97549 12.3419 0.148305
3680 1 4.12198 12.3423 3.02211
3685 1 7.12218 13.8863 2.9245
3687 2 5.99442 12.3429 0.0413575
3691 2 4.06558 13.8852 4.24306
3694 2 6.08698 12.3421 2.87532
3698 2 8.0144 13.8868 4.55523
3684 1 10.1611 13.8918 1.54539
3686 1 10.9912 12.347 4.39319
3693 2 12.0277 13.8914 4.44343
3695 2 8.13766 13.8897 1.3231
3696 2 9.98247 12.3449 0.115205
3697 2 10.1025 12.3462 2.76265
480 2 2.08777 9.25412 8.67946
481 2 1.97464 9.2554 6.02559
483 1 1.90641 10.8002 7.25048
492 2 3.93484 10.7992 7.47265
490 2 5.99179 9.25518 5.91917
491 1 4.11338 9.25569 8.90393
500 2 6.07955 9.25478 8.75176
502 1 7.1152 10.7988 8.8004
2742 1 4.95222 10.7979 5.87366
2743 1 7.95541 9.25496 5.77443
503 2 8.13408 10.7995 7.20096
510 2 9.98582 9.25491 5.99742
511 2 10.1007 9.25413 8.64109
513 1 10.1623 10.7993 7.42203
1359 1 1.89523 13.8846 7.25558
1369 2 2.09038 12.3453 8.68012
1370 2 3.93216 13.8882 7.47503
1372 2 1.96908 12.3463 6.02932
1360 1 4.11525 12.3441 8.9006
1365 1 7.11667 13.887 8.80158
1367 2 5.98977 12.342 5.92232
1374 2 6.08046 12.3437 8.75216
3682 1 4.95006 13.8848 5.87692
3683 1 7.95369 12.343 5.77543
1364 1 10.1644 13.8874 7.42542
1375 2 8.13657 13.8888 7.20343
1376 2 9.98372 12.3441 5.99834
1377 2 10.104 12.3421 8.64372
3701 1 1.06833 15.4255 4.40208
3712 2 1.97131 15.4278 0.150548
3700 1 4.11904 15.4277 3.02364
3714 2 6.08452 15.4293 2.87631
475 1 1.92125 7.7091 7.24938
1392 2 1.95911 15.4264 6.03371
2722 1 4.95683 7.71033 5.87106
2738 2 8.0189 7.71103 4.55321
3703 1 7.95488 15.4297 5.77645
1397 2 10.1114 15.4281 8.64948
2719 1 1.92238 7.70973 1.36766
2725 1 7.12748 7.71077 2.92221
505 1 10.164 7.70935 7.42232
2731 2 4.06877 7.70966 4.23937
3709 2 2.09183 15.4275 2.80229
1387 2 5.99047 15.4281 5.92552
486 2 3.94163 7.71003 7.47176
2730 2 3.94766 7.70952 1.59136
497 2 8.13499 7.71006 7.20103
495 1 7.11537 7.71052 8.80053
482 1 1.03733 9.24301 10.2725
484 2 0.0334422 10.8007 10.2056
899 1 1.89333 10.7876 13.1312
909 2 2.08954 9.25088 14.5605
910 2 3.92985 10.7936 13.3512
912 2 1.94852 9.24897 11.9022
493 1 4.94852 10.7977 11.7537
494 2 4.06349 10.8002 10.1209
501 1 7.94771 9.25365 11.6508
504 2 8.00614 10.798 10.4311
905 1 7.11988 10.798 14.687
907 2 5.98619 9.2536 11.8022
914 2 6.08283 9.25432 14.6347
512 1 10.9808 9.25355 10.2731
514 2 12.028 10.794 10.3176
904 1 10.1506 10.8014 13.3046
915 2 8.13071 10.7997 13.0817
916 2 9.97203 9.25329 11.8723
917 2 10.0949 9.25239 14.5186
959 1 1.90244 13.8739 13.1325
969 2 2.09068 12.339 14.5618
970 2 3.93476 13.8828 13.3525
972 2 1.95873 12.3325 11.9105
1361 1 1.06614 12.3363 10.2786
1368 2 0.0313595 13.8773 10.2257
965 1 7.12179 13.8852 14.6867
967 2 5.98817 12.341 11.8026
974 2 6.0837 12.3419 14.6349
1362 1 4.95403 13.8861 11.7531
1363 1 7.95066 12.342 11.651
1371 2 4.06324 13.8874 10.123
1378 2 8.00762 13.8862 10.432
964 1 10.1577 13.8937 13.3057
975 2 8.13436 13.8919 13.0827
976 2 9.9752 12.3435 11.8722
977 2 10.1003 12.3488 14.5208
1366 1 10.991 12.3396 10.2744
1373 2 12.046 13.8731 10.3198
562 2 1.96612 9.25686 17.7916
564 1 1.90758 10.8019 19.0103
573 2 3.939 10.8014 19.2299
901 1 1.0696 9.2524 16.1607
908 2 0.0452754 10.8004 16.1215
571 2 5.99651 9.25613 17.6813
900 1 4.11542 9.25315 14.7775
902 1 4.95773 10.7997 17.6312
903 1 7.96152 9.25697 17.538
911 2 4.06563 10.7962 16.0012
918 2 8.01857 10.7996 16.3149
584 2 8.14921 10.8043 18.9645
591 2 9.99071 9.25623 17.7588
594 1 10.1841 10.8073 19.1848
906 1 10.9867 9.25288 16.1478
913 2 12.0182 10.7959 16.175
159 1 1.89964 13.8869 19.0133
170 2 3.93702 13.8903 19.2317
172 2 1.967 12.3472 17.7927
961 1 1.07147 12.3441 16.1635
968 2 0.030903 13.8824 16.1068
167 2 5.99733 12.3435 17.6837
960 1 4.11662 12.3368 14.7801
962 1 4.95822 13.8873 17.6349
963 1 7.96365 12.343 17.5389
971 2 4.06833 13.8807 16.0031
978 2 8.01597 13.8867 16.3166
164 1 10.1897 13.8877 19.1937
175 2 8.15262 13.8891 18.9679
176 2 9.99211 12.3462 17.7571
966 1 10.9984 12.348 16.1503
973 2 12.0339 13.8914 16.1771
989 2 2.08963 15.4251 14.5622
992 2 1.95936 15.4182 11.9092
1381 1 1.06081 15.4185 10.2795
994 2 6.08421 15.4294 14.631
1383 1 7.95641 15.4286 11.6509
891 2 4.06549 7.71044 15.9993
882 1 4.95835 7.71212 17.6285
1386 1 11.0087 15.4158 10.277
192 2 1.95766 15.428 17.7896
981 1 1.06124 15.4264 16.1599
980 1 4.11758 15.417 14.7815
983 1 7.96416 15.4248 17.542
567 2 3.94282 7.7125 19.2296
586 1 10.1724 7.71373 19.1836
879 1 1.89411 7.70853 13.1241
488 1 4.94899 7.70919 11.7532
489 2 4.06606 7.7094 10.1196
509 2 12.0291 7.71406 10.3203
556 1 1.91709 7.71044 19.0068
987 2 5.99304 15.4303 11.8028
187 2 5.99792 15.4322 17.6873
890 2 3.92992 7.70941 13.3497
499 2 8.00683 7.70959 10.4314
578 2 8.143 7.71228 18.9627
561 2 2.09715 9.25704 20.4392
563 1 1.07911 9.25626 22.0382
565 2 0.042521 10.7979 21.9925
1952 2 1.97432 9.25498 23.6676
572 1 4.12252 9.25726 20.6577
574 1 4.96135 10.7992 23.5084
575 2 4.07029 10.8003 21.8785
581 2 6.088 9.25689 20.5105
582 1 7.95972 9.25528 23.4096
583 1 7.12534 10.8008 20.5593
585 2 8.01605 10.7987 22.1898
1947 2 5.99727 9.25478 23.5586
592 2 10.1194 9.25935 20.4021
593 1 10.9965 9.25508 22.0365
595 2 12.0446 10.7881 22.1027
1956 2 9.98326 9.25156 23.6352
161 1 1.07486 12.3421 22.0378
168 2 0.0410391 13.8848 21.992
169 2 2.09556 12.3451 20.4404
2812 2 1.97272 12.3425 23.6664
160 1 4.12228 12.3443 20.6578
162 1 4.96372 13.8854 23.5094
163 1 7.96572 12.3435 23.4064
165 1 7.12564 13.888 20.5607
171 2 4.0703 13.8865 21.8798
174 2 6.08787 12.3448 20.5096
178 2 8.01438 13.8884 22.1915
2807 2 6.00017 12.3418 23.559
166 1 11.0428 12.3542 22.0421
2817 2 10.1071 12.3432 26.2872
177 2 10.1352 12.3462 20.4127
2816 2 9.99364 12.3434 23.6325
1939 1 1.91804 10.7994 24.8871
1941 1 1.08303 9.25453 27.9164
1948 2 0.0452406 10.7971 27.8677
1949 2 2.10033 9.25372 26.3162
1950 2 3.94504 10.7989 25.1086
1940 1 4.12561 9.25465 26.5372
1942 1 4.9588 10.7984 29.3886
1943 1 7.95832 9.25468 29.2874
1945 1 7.12445 10.7995 26.4385
1951 2 4.07049 10.7982 27.7573
1954 2 6.08951 9.25474 26.389
1958 2 8.01433 10.7995 28.0692
1944 1 10.1627 10.7992 25.0647
1946 1 11.0001 9.25437 27.9113
1953 2 12.0375 10.7974 27.9686
1955 2 8.14149 10.8004 24.8387
1957 2 10.1049 9.25219 26.2846
2799 1 1.91682 13.8855 24.8869
2801 1 1.08005 12.3413 27.916
2808 2 0.0431577 13.8843 27.8671
2809 2 2.1004 12.3417 26.3173
2810 2 3.9439 13.8866 25.1086
2800 1 4.12479 12.3428 26.5378
2802 1 4.95723 13.8863 29.3904
2803 1 7.95715 12.3441 29.2886
2805 1 7.12353 13.8877 26.44
2811 2 4.06937 13.8861 27.7586
2814 2 6.08833 12.3435 26.3901
2818 2 8.01346 13.8886 28.0708
2804 1 10.1617 13.8892 25.0639
2806 1 11.0039 12.3439 27.915
2813 2 12.0474 13.8829 27.9734
2815 2 8.14164 13.8887 24.8405
181 1 1.07235 15.4286 22.0381
180 1 4.12097 15.4283 20.6585
173 2 12.0915 13.8832 22.1017
186 1 11.0512 15.4183 22.0457
197 2 10.1375 15.4276 20.4171
2821 1 1.07811 15.4282 27.917
2820 1 4.12317 15.4294 26.5387
1931 2 4.07121 7.7098 27.7568
2826 1 11.0111 15.427 27.9182
1930 2 3.94598 7.71055 25.1089
569 1 4.9609 7.71082 23.5083
570 2 4.07086 7.71186 21.878
1919 1 1.9202 7.71044 24.887
2832 2 1.97004 15.4293 23.6668
1922 1 4.96125 7.70992 29.3872
576 1 7.12305 7.7119 20.5609
590 2 12.0407 7.71388 22.0883
2641 1 1.07105 18.5125 4.4021
2649 2 2.09115 18.5141 2.80334
2652 2 1.96815 18.514 0.15423
3699 1 1.91075 16.9689 1.37384
837 2 10.1167 21.5992 8.59017
3708 2 0.0348548 16.97 4.34862
835 2 8.14985 23.1417 7.18747
3710 2 3.93854 16.9717 1.59569
836 2 9.99477 21.6003 5.96764
2640 1 4.11806 18.5132 3.02512
2647 2 5.99528 18.5153 0.0464482
2654 2 6.08255 18.5139 2.87513
815 2 8.14383 20.0576 7.19347
3705 1 7.12195 16.9717 2.92376
3707 2 5.99434 15.4301 0.0437684
3711 2 4.06226 16.9705 4.245
804 1 10.1773 20.0446 7.3859
3718 2 8.0127 16.9719 4.55534
2646 1 11.0153 18.5191 4.3929
2656 2 9.99034 18.5186 0.118852
2657 2 10.1179 18.521 2.7675
3704 1 10.1689 16.9771 1.54631
3706 1 10.9978 15.4373 4.39778
3713 2 12.0459 16.9744 4.45136
3715 2 8.14147 16.977 1.32533
2663 1 7.95393 21.5982 5.75964
3717 2 10.1073 15.436 2.76735
2639 1 1.91136 20.0563 1.3759
2648 2 0.0392916 20.059 4.35308
2650 2 3.93834 20.0576 1.59834
2661 1 1.07732 21.6007 4.40609
2669 2 2.09356 21.6015 2.80596
2672 2 1.96853 21.6018 0.158138
2645 1 7.12075 20.0559 2.91819
2651 2 4.06257 20.0562 4.24701
2658 2 8.00921 20.054 4.54958
2660 1 4.11929 21.6001 3.02755
2667 2 5.99756 21.6003 0.0475285
2674 2 6.08325 21.5996 2.87384
2644 1 10.1773 20.0586 1.54189
2653 2 12.061 20.0576 4.45434
2655 2 8.14559 20.0609 1.32492
2666 1 11.0276 21.6012 4.37809
2676 2 9.99609 21.6012 0.115767
2677 2 10.1271 21.6032 2.75856
809 2 2.08395 18.5122 8.68168
812 2 1.95749 18.5115 6.03575
1379 1 1.89603 16.9668 7.25541
1389 2 2.08669 15.4285 8.68358
1390 2 3.93092 16.9726 7.47548
2642 1 4.95151 20.0551 5.8779
800 1 4.11588 18.5159 8.90009
807 2 5.98947 18.512 5.92783
814 2 6.0862 18.5193 8.75941
834 2 6.09736 21.6031 8.7729
1385 1 7.11963 16.9732 8.79999
824 1 10.1831 23.1421 7.36161
827 2 5.9913 21.5975 5.93036
2643 1 7.95333 18.5137 5.77165
3702 1 4.94945 16.9693 5.87693
820 1 4.12602 21.6047 8.9121
816 2 9.99042 18.518 5.99055
817 2 10.1246 18.5225 8.64451
1384 1 10.1701 16.9701 7.42877
1395 2 8.14272 16.9769 7.20425
1396 2 9.98379 15.4338 5.99951
805 1 7.13182 20.0576 8.79548
799 1 1.90594 20.0549 7.25593
810 2 3.9357 20.0577 7.47955
829 2 2.09221 21.6006 8.6892
832 2 1.96627 21.6 6.03892
2659 1 1.91218 23.1446 1.37829
2678 2 8.01075 23.1413 4.54579
2664 1 10.182 23.1428 1.53671
819 1 1.90872 23.1412 7.26121
2662 1 4.95547 23.1419 5.87953
2670 2 3.94047 23.144 1.60064
2665 1 7.12216 23.142 2.91502
2671 2 4.06543 23.1431 4.24927
2673 2 12.0684 23.1422 4.4571
830 2 3.94209 23.1412 7.48508
825 1 7.14589 23.1403 8.79428
3716 2 9.98543 15.4326 0.117506
1380 1 4.11482 15.4303 8.9018
1394 2 6.08138 15.4316 8.75387
2002 1 4.95787 20.0578 8.72183e-04
719 2 2.07968 18.5074 14.5506
720 2 1.94225 18.4934 11.8998
801 1 1.04869 18.4988 10.2683
979 1 1.89291 16.9531 13.1316
1156 2 9.9823 21.6217 17.7644
990 2 3.93498 16.9713 13.3526
1135 2 8.14018 20.0549 19.0086
1124 1 10.1998 20.0451 19.2149
1388 2 0.0171334 16.9554 10.2203
728 2 6.00316 18.5144 11.8109
739 2 6.09467 18.5303 14.6333
803 1 7.96296 18.5092 11.6417
985 1 7.11866 16.9734 14.6817
1144 1 10.203 23.1383 19.2045
758 2 12.1027 23.1432 16.2127
1382 1 4.95477 16.9719 11.7536
756 1 11.0929 21.5871 16.2203
1391 2 4.06613 16.9763 10.1231
1398 2 8.01513 16.971 10.4296
750 2 9.99055 18.5258 11.8736
751 2 10.0954 18.5429 14.5306
806 1 11.0183 18.4933 10.2736
984 1 10.1625 16.9787 13.3102
995 2 8.14081 16.9895 13.0824
753 2 12.0756 20.0432 16.1991
1147 2 5.96995 21.6715 17.597
1139 1 1.85247 23.142 19.0694
1393 2 12.0547 16.9554 10.3306
718 1 1.86883 20.0281 13.1032
723 2 2.07758 21.613 14.5794
724 2 1.9436 21.5944 11.9174
726 1 1.87744 23.14 13.1243
729 2 3.91017 20.033 13.3192
735 2 3.93094 23.1409 13.3724
808 2 0.0242194 20.05 10.2306
821 1 1.05694 21.5941 10.2742
733 2 6.00063 21.6012 11.8399
738 1 7.14117 20.0696 14.6985
743 2 6.02731 21.5631 14.617
802 1 4.96966 20.0543 11.7405
811 2 4.0677 20.0602 10.1242
818 2 8.02941 20.0572 10.4331
823 1 7.93752 21.585 11.6406
740 2 8.16593 20.1184 13.0981
745 2 8.35812 23.1427 12.9849
746 1 8.82579 23.1465 14.769
749 1 10.177 20.047 13.2845
754 2 10.0735 21.5199 11.7737
755 2 10.0575 21.684 14.6175
747 2 7.91763 23.1398 16.3626
813 2 12.0932 20.0172 10.3349
826 1 11.0894 21.5428 10.1362
179 1 1.89946 16.9687 19.011
190 2 3.93432 16.9821 19.2291
744 1 7.95857 21.532 17.6899
721 1 1.07225 18.512 16.1604
742 2 7.98248 20.0953 16.3551
988 2 0.0320618 16.9723 16.1087
1132 2 1.96683 18.5175 17.7918
822 1 4.95985 23.1416 11.7795
730 1 4.11599 18.4842 14.7794
741 1 7.95931 18.4982 17.5393
737 2 4.28445 23.1408 15.9663
982 1 4.9607 16.9777 17.6388
734 1 4.0458 21.5002 14.6894
991 2 4.07072 16.9611 16.0055
998 2 8.01361 16.9689 16.3137
1127 2 5.98885 18.5351 17.6808
184 1 10.192 16.9624 19.1922
195 2 8.15061 16.9776 18.9683
732 2 4.01255 20.0353 16.005
752 1 11.003 18.5187 16.158
731 1 4.94714 20.0794 17.617
993 2 12.037 16.984 16.1883
1136 2 9.9808 18.5327 17.7604
722 2 0.0386501 20.0579 16.1197
725 1 1.05578 21.5989 16.1893
1152 2 2.00679 21.6299 17.7963
1119 1 1.91348 20.0601 19.0144
1130 2 3.94253 20.0768 19.2328
831 2 4.07692 23.1413 10.1421
838 2 8.03223 23.1407 10.4421
736 1 4.78073 23.1399 17.8126
757 1 10.4534 23.1392 12.6819
833 2 12.0348 23.141 10.3795
1150 2 3.87594 23.1417 19.3559
1155 2 8.12777 23.14 18.9743
996 2 9.98155 15.4324 11.8731
997 2 10.103 15.4402 14.527
196 2 9.99088 15.435 17.7583
986 1 11.0072 15.4372 16.1553
2037 2 10.1276 21.6024 26.2921
188 2 0.0375001 16.971 21.9892
189 2 2.09286 15.4299 20.4391
1121 1 1.07089 18.5131 22.0425
1129 2 2.09083 18.5214 20.4418
2012 2 1.96564 18.5171 23.6721
2005 1 7.12342 20.0595 26.4494
2026 1 11.0239 21.5994 27.9198
182 1 4.95729 16.9694 23.5103
2015 2 8.14701 20.0631 24.8538
185 1 7.12539 16.9743 20.5641
191 2 4.06366 16.9698 21.8805
194 2 6.08697 15.4319 20.5094
198 2 8.01428 16.9789 22.1948
1120 1 4.11462 18.5092 20.6566
1123 1 7.96306 18.5148 23.4235
1134 2 6.0786 18.514 20.5062
2007 2 5.99764 18.5123 23.5621
2827 2 5.99978 15.43 23.5598
2013 2 12.0586 20.0552 27.975
193 2 12.056 16.9798 22.1121
2004 1 10.1789 20.0593 25.0748
1126 1 11.017 18.5132 22.0508
1137 2 10.1296 18.5081 20.4143
2016 2 9.98888 18.5233 23.643
2836 2 9.99531 15.4331 23.6346
1128 2 0.0290511 20.0527 21.9947
1141 1 1.05597 21.5962 22.0635
1149 2 2.07508 21.5963 20.4656
2032 2 1.96346 21.6009 23.6826
1122 1 4.95732 20.051 23.5322
1125 1 7.09622 20.0596 20.6029
1131 2 4.06631 20.0434 21.8978
1138 2 8.00933 20.0655 22.2088
1140 1 4.0996 21.5871 20.7212
1143 1 7.96431 21.6009 23.4375
1154 2 6.06629 21.6069 20.4711
2027 2 5.99458 21.5965 23.5603
1133 2 12.0562 20.0556 22.0923
1146 1 11.0233 21.5983 22.0538
1157 2 10.1261 21.5993 20.4156
2036 2 9.99464 21.6033 23.6442
2001 1 1.07518 18.5145 27.9217
2009 2 2.09369 18.516 26.3225
2819 1 1.91264 16.9705 24.889
2034 2 6.08353 21.6021 26.3911
2828 2 0.0403409 16.9708 27.8702
2829 2 2.09809 15.4295 26.3183
2830 2 3.94017 16.9738 25.1107
2000 1 4.12067 18.5145 26.5446
2003 1 7.96058 18.5165 29.2952
2014 2 6.08556 18.5173 26.3912
2023 1 7.964 21.6008 29.2959
2822 1 4.95624 16.9725 29.3933
2020 1 4.11901 21.6012 26.5551
2825 1 7.12434 16.9743 26.4429
2831 2 4.06705 16.9719 27.7617
2834 2 6.08716 15.4315 26.3911
2838 2 8.01399 16.9758 28.0737
2006 1 11.0154 18.5143 27.9197
2017 2 10.1154 18.5192 26.2942
2824 1 10.1713 16.975 25.0705
2018 2 8.01528 20.0599 28.0767
2833 2 12.0488 16.9702 27.9791
2835 2 8.1457 16.9752 24.8451
2011 2 4.06607 20.0569 27.7679
1999 1 1.90725 20.0552 24.9009
2008 2 0.0412239 20.0596 27.8728
2010 2 3.93672 20.0584 25.1221
2021 1 1.07564 21.6027 27.9265
2029 2 2.09326 21.6022 26.3284
2837 2 10.11 15.4313 26.292
1145 1 7.11332 23.1408 20.5939
1151 2 4.06158 23.1422 21.9211
1158 2 8.01061 23.1414 22.2085
1153 2 12.0667 23.1376 22.0902
2038 2 8.01858 23.1428 28.0761
183 1 7.9668 15.4313 23.4089
2823 1 7.95827 15.4318 29.2915
1439 1 1.91265 26.2302 1.37633
1441 1 1.07854 24.6854 4.40649
1448 2 0.0396517 26.2275 4.35595
1449 2 2.09501 24.687 2.80623
1450 2 3.94184 26.2283 1.59771
1452 2 1.9692 24.6872 0.157509
3237 2 10.1323 27.7618 8.64622
2668 2 0.0403901 23.1438 4.35602
3056 2 9.9946 30.8491 6.00075
1440 1 4.12166 24.6858 3.02703
1445 1 7.12664 26.2276 2.91815
1447 2 6.00056 24.6857 0.0470082
1451 2 4.06733 26.2284 4.24663
1454 2 6.08608 24.6859 2.8735
1458 2 8.01543 26.2285 4.54963
3049 2 2.09799 30.8469 8.68166
3937 2 10.1216 30.8491 2.76904
3236 2 9.99893 27.7658 5.99159
1444 1 10.1835 26.2275 1.54169
1446 1 11.03 24.6846 4.37823
1453 2 12.0661 26.2269 4.45415
1455 2 8.15203 26.2256 1.32458
1456 2 9.99953 24.6835 0.115538
1457 2 10.1304 24.6834 2.75822
3235 2 8.15219 29.3054 7.20558
3936 2 9.99792 30.8509 0.117615
2675 2 8.1487 23.1432 1.32305
1459 1 1.91406 29.313 1.37361
1461 1 1.0782 27.769 4.40283
1468 2 0.0389105 29.3107 4.35308
1469 2 2.09597 27.7706 2.80312
1470 2 3.94394 29.3107 1.59429
1472 2 1.97062 27.7708 0.153567
1460 1 4.12441 27.77 3.02339
1465 1 7.13182 29.3103 2.92373
1467 2 6.00249 27.7691 0.0453731
1471 2 4.06945 29.3115 4.24381
1474 2 6.08957 27.7701 2.87436
1478 2 8.02209 29.3097 4.5557
1464 1 10.1818 29.3092 1.54694
1466 1 11.0237 27.7673 4.39368
1473 2 12.0579 29.3103 4.45239
1475 2 8.15232 29.3077 1.32558
1476 2 10.0007 27.7671 0.118493
1477 2 10.1282 27.7656 2.76715
3224 1 10.18 29.314 7.4301
3220 1 4.12573 27.7631 8.90099
3199 1 1.91178 26.2256 7.25678
3209 2 2.09438 24.682 8.68977
3210 2 3.94248 26.2223 7.48028
3212 2 1.96845 24.6826 6.03904
1463 1 7.96122 27.7687 5.77254
1442 1 4.95635 26.2276 5.8775
1443 1 7.95685 24.6847 5.75981
3234 2 6.09571 27.762 8.76235
3200 1 4.12947 24.6769 8.91233
3205 1 7.13933 26.2228 8.79774
3207 2 5.99438 24.6845 5.93017
3214 2 6.10119 24.6795 8.77399
3227 2 5.99721 27.7689 5.92777
3225 1 7.13136 29.3067 8.80303
3204 1 10.183 26.2398 7.38693
3215 2 8.14975 26.2257 7.19433
3216 2 9.99771 24.6832 5.96807
3217 2 10.1195 24.6852 8.59069
3219 1 1.91264 29.3091 7.2534
3229 2 2.09353 27.7659 8.6818
3230 2 3.9432 29.3054 7.4756
3232 2 1.97008 27.7665 6.03371
1462 1 4.95881 29.3117 5.87464
3921 1 1.08001 30.8513 4.40041
3927 2 6.00255 30.8518 0.0428419
3926 1 11.0127 30.8486 4.4004
3052 2 1.97379 30.8485 6.03029
3040 1 4.12624 30.8471 8.90294
3054 2 6.09198 30.8475 8.75692
2022 1 4.96078 23.1437 0.00435648
3282 1 4.96185 26.2284 5.16525e-04
828 2 0.023242 23.1398 10.2341
2319 1 1.87269 26.2493 13.1042
2329 2 2.07889 24.672 14.5794
2330 2 3.91534 26.2465 13.3199
2332 2 1.94553 24.6847 11.9171
3201 1 1.05796 24.6841 10.2742
3208 2 0.0243079 26.2293 10.2323
2353 2 12.0564 29.3095 16.2123
727 2 0.0294168 23.1441 16.1297
3852 2 1.97251 30.8463 17.787
2325 1 7.14446 26.2103 14.7005
2327 2 6.00489 24.6798 11.8407
2334 2 6.03127 24.7162 14.6178
3202 1 4.97557 26.2273 11.7419
3203 1 7.94229 24.6967 11.6421
3211 2 4.07379 26.2209 10.1254
3218 2 8.03762 26.2246 10.4356
2177 2 10.1163 30.8451 14.5345
2324 1 10.1834 26.238 13.2912
2335 2 8.17233 26.1665 13.1017
2336 2 10.0773 24.762 11.777
2337 2 10.0581 24.6078 14.623
3206 1 11.0904 24.74 10.1381
3213 2 12.0964 26.2644 10.3366
2339 1 1.90138 29.3214 13.1296
2349 2 2.08537 27.7724 14.5507
2350 2 3.94214 29.3066 13.3526
2352 2 1.95113 27.7821 11.8994
3221 1 1.05854 27.7744 10.2678
3228 2 0.02448 29.3177 10.2227
2345 1 7.12456 29.3061 14.6825
2347 2 6.01174 27.7658 11.8132
2354 2 6.09942 27.75 14.635
3222 1 4.9632 29.3076 11.7546
3223 1 7.97214 27.7723 11.6462
3231 2 4.07454 29.3027 10.1242
3238 2 8.02695 29.3101 10.4335
2344 1 10.175 29.3068 13.3157
2355 2 8.15073 29.2929 13.0868
2356 2 10.0004 27.7584 11.88
2357 2 10.1121 27.7461 14.5374
3226 1 11.0239 27.7891 10.2768
3233 2 12.0604 29.3263 10.3377
2346 1 11.0173 27.7726 16.1662
1555 2 8.14941 29.2999 18.9689
1519 1 1.91568 26.221 19.0151
1530 2 3.94625 26.2035 19.2344
1532 2 2.00719 24.654 17.7957
2321 1 1.05522 24.6885 16.1888
2328 2 0.0346594 26.2286 16.1172
1527 2 5.97151 24.6076 17.5987
2320 1 4.0483 24.7798 14.69
2322 1 4.94976 26.1996 17.6184
2323 1 7.95958 24.7467 17.6923
2331 2 4.01699 26.244 16.0055
2338 2 7.98628 26.1833 16.3568
1556 2 9.98604 27.7493 17.7635
1544 1 10.1825 29.3121 19.1949
1524 1 10.2024 26.2315 19.2184
1535 2 8.14417 26.2253 19.0102
1536 2 9.98484 24.6592 17.7673
2326 1 11.0951 24.7008 16.2237
2333 2 12.0828 26.2429 16.2066
1539 1 1.91207 29.3068 19.0096
1550 2 3.94315 29.2956 19.2308
1552 2 1.97676 27.7602 17.7891
2341 1 1.07762 27.7683 16.16
2348 2 0.035106 29.3077 16.1091
1547 2 5.99282 27.743 17.6813
2340 1 4.12113 27.794 14.7801
2342 1 4.96587 29.3007 17.6381
2343 1 7.96269 27.78 17.5385
2351 2 4.07505 29.3176 16.0054
2358 2 8.01831 29.3108 16.3151
2167 2 6.00212 30.8486 11.805
2174 2 6.09029 30.85 14.6324
2176 2 9.99242 30.8503 11.8812
2161 1 1.07518 30.8477 16.1583
3847 2 6.00156 30.8466 17.6863
2166 1 11.0142 30.8503 16.1636
3856 2 9.9937 30.8473 17.763
748 1 6.20615 23.1389 15.541
1148 2 0.0262331 23.1425 21.9919
1521 1 1.05494 24.6887 22.063
1528 2 0.0253364 26.2325 21.9928
1529 2 2.07547 24.6887 20.4657
3292 2 1.96271 24.6861 23.682
3317 2 10.134 27.7693 26.2905
3134 2 6.09301 30.8511 26.3908
3129 2 2.09891 30.8521 26.3171
3136 2 10.0011 30.8515 23.6381
1520 1 4.10164 24.6961 20.7213
1522 1 4.96199 26.233 23.5334
1523 1 7.96825 24.6827 23.4378
1525 1 7.10158 26.2219 20.6052
1531 2 4.0692 26.2387 21.8997
1534 2 6.06898 24.6764 20.4725
1538 2 8.01584 26.2175 22.2105
3287 2 5.99811 24.6872 23.5612
3854 2 6.09186 30.8483 20.5142
1526 1 11.029 24.681 22.0541
1533 2 12.0661 26.2239 22.0894
1537 2 10.13 24.6774 20.4174
3296 2 9.99976 24.6806 23.6442
1541 1 1.07451 27.7679 22.0415
1548 2 0.0386556 29.3109 21.987
1549 2 2.09536 27.7591 20.4417
3312 2 1.96734 27.7668 23.6716
1540 1 4.12002 27.7705 20.6586
1542 1 4.96226 29.312 23.5122
1543 1 7.97171 27.7684 23.4252
1545 1 7.12946 29.3064 20.569
1551 2 4.06763 29.3101 21.8828
1554 2 6.08352 27.7669 20.5099
1558 2 8.0237 29.3049 22.1973
3307 2 6.00466 27.7706 23.5628
1546 1 11.0294 27.7693 22.0502
1553 2 12.0652 29.3124 22.094
1557 2 10.1322 27.7689 20.4185
3316 2 10.0016 27.7642 23.6421
3315 2 8.15584 29.3084 24.847
2028 2 0.038957 23.1457 27.8722
2030 2 3.93695 23.1442 25.1319
3279 1 1.90743 26.2305 24.901
3281 1 1.07526 24.688 27.9263
3288 2 0.0379773 26.2303 27.8706
3289 2 2.09366 24.6879 26.3284
3290 2 3.93896 26.2277 25.1218
3313 2 12.0632 29.314 27.971
3306 1 11.0264 27.7704 27.9206
2031 2 4.06603 23.1443 27.7734
3127 2 6.00475 30.8517 23.5612
3280 1 4.12063 24.6866 26.5546
1142 1 4.95964 23.1427 23.5458
3283 1 7.96708 24.6849 29.2955
3285 1 7.12868 26.2262 26.4491
3291 2 4.06867 26.2301 27.7681
3294 2 6.08591 24.6856 26.3912
3298 2 8.02229 26.2259 28.0759
3304 1 10.186 29.3113 25.0694
2033 2 12.0649 23.1408 27.9723
2035 2 8.14781 23.1434 24.8539
3284 1 10.1876 26.2265 25.0737
3286 1 11.0274 24.6844 27.92
3293 2 12.0653 26.2272 27.9719
3295 2 8.15523 26.2244 24.8546