# LAMMPS data file written by OVITO Basic 3.7.11
3998 atoms
2 atom types
0.0 48.4282885418 xlo xhi
0.0 30.8572093325 ylo yhi
0.0 29.396923244 zlo zhi

Atoms  # atomic

3919 1 1.91764 1.53756 1.37144
3070 2 3.94357 4.62048 7.47216
3928 2 0.0430453 1.53604 4.34697
3075 2 8.14013 4.62174 7.20307
3930 2 3.94722 1.53536 1.59258
3932 2 1.97383 -0.00443414 0.150506
3941 1 1.08556 3.07631 4.39856
3949 2 2.10251 3.07697 2.79763
3952 2 1.97895 3.07845 0.148599
3920 1 4.12774 -0.00486284 3.0208
3925 1 7.13227 1.53683 2.92365
3059 1 1.91974 4.61933 7.24717
3931 2 4.07262 1.53636 4.24156
3934 2 6.09333 -0.0053735 2.87508
3938 2 8.02246 1.53661 4.55562
3940 1 4.12946 3.07852 3.01981
3947 2 6.00081 3.07929 0.0401288
3954 2 6.09417 3.07913 2.87441
3924 1 10.1756 1.53345 1.54434
477 2 1.98174 6.16355 6.02324
3933 2 12.0459 1.53606 4.45038
3935 2 8.14839 1.53425 1.32249
3064 1 10.1688 4.62163 7.42677
507 2 10.1066 6.16683 8.64463
3946 1 10.9995 3.07355 4.39677
3956 2 9.99334 3.07926 0.113831
3957 2 10.1128 3.07549 2.764
506 2 9.98704 6.16644 5.99841
2721 1 1.08481 6.16363 4.39562
2728 2 0.0498149 7.70588 4.3347
2729 2 2.10314 6.16366 2.79555
476 2 2.09236 6.16167 8.67832
2732 2 1.98099 6.16495 0.147949
3939 1 1.92171 4.6216 1.36919
3948 2 0.0512215 4.61868 4.33789
3950 2 3.94862 4.62087 1.59166
2720 1 4.12847 6.16542 3.01933
485 2 5.99467 6.16703 5.91929
2727 2 5.99812 6.16631 0.0391368
3942 1 4.95836 4.62304 5.87146
2734 2 6.09255 6.1659 2.87398
3065 1 7.12184 4.62245 8.80238
3945 1 7.13043 4.62307 2.92259
3951 2 4.07113 4.62168 4.23942
3958 2 8.0211 4.62305 4.5541
2723 1 7.95807 6.16669 5.77519
2726 1 10.993 6.16312 4.3922
2733 2 12.0246 7.70909 4.43209
2735 2 8.13966 7.70906 1.31917
2736 2 9.98757 6.1658 0.112327
2737 2 10.1064 6.1634 2.76013
3944 1 10.1685 4.619 1.54166
3953 2 12.03 4.61923 4.44074
3955 2 8.14361 4.62042 1.31993
3039 1 1.9172 1.53382 7.25048
496 2 6.08265 6.16425 8.75238
3050 2 3.9456 1.53113 7.47365
3077 2 10.1135 3.0807 8.65
3069 2 2.10135 3.07142 8.67734
3072 2 1.98265 3.07322 6.02553
3076 2 9.98826 3.07783 6.00006
3045 1 7.1276 1.53463 8.80445
3057 2 10.1205 -0.00278599 8.65252
487 1 4.11741 6.16421 8.90417
3060 1 4.12516 3.07588 8.9011
3067 2 5.99765 3.0804 5.92222
3074 2 6.0889 3.07642 8.75402
3922 1 4.96094 1.53674 5.87329
3923 1 7.96566 -0.00568612 5.77716
3943 1 7.96115 3.07959 5.77661
3044 1 10.1742 1.53776 7.42873
3055 2 8.14578 1.53393 7.20562
2724 1 10.1632 7.70891 1.54052
3047 2 6.00078 -0.00563803 5.92488
3929 2 2.0985 -0.0050628 2.80054
2159 1 1.9099 1.54282 13.1307
2169 2 2.09631 -0.00567946 14.5592
2170 2 3.94184 1.53595 13.3519
2172 2 1.96669 -9.31719e-04 11.9087
2189 2 2.09639 3.07679 14.5584
2192 2 1.96623 3.0831 11.9102
3041 1 1.07315 -0.00419257 10.2774
3048 2 0.038921 1.53683 10.2235
3061 1 1.08056 3.07632 10.2762
2165 1 7.12761 1.53716 14.6862
2182 1 4.9605 4.62346 17.6293
883 1 7.9612 6.16849 17.5361
2187 2 5.99545 3.07943 11.8037
2194 2 6.08826 3.07945 14.6356
3042 1 4.96197 1.53436 11.7534
3043 1 7.96606 -0.00519649 11.6559
3051 2 4.07133 1.5325 10.1231
3058 2 8.01805 1.5357 10.4356
3063 1 7.95938 3.07942 11.6542
2164 1 10.1712 1.53169 13.3085
2175 2 8.14402 1.53147 13.0856
2191 2 4.06677 4.62397 16.0003
3875 2 8.1454 4.62312 18.9644
2196 2 9.98622 3.07924 11.8767
2197 2 10.1101 3.07258 14.5282
3046 1 11.015 0.00839141 10.2819
3053 2 12.0519 1.54885 10.3332
3066 1 11.0086 3.08865 10.2787
478 1 1.04459 6.17152 10.2716
479 2 0.0082302 7.70445 10.2066
3864 1 10.1746 4.6246 19.1884
889 2 2.09201 6.16369 14.5592
880 1 4.11746 6.16743 14.777
892 2 1.95325 6.16728 11.9018
2179 1 1.89838 4.62955 13.1296
2190 2 3.9342 4.62457 13.3506
3068 2 0.0424517 4.60963 10.2066
2193 2 12.0344 4.62047 16.2009
893 2 12.0257 7.71052 16.1901
498 1 7.95157 6.16573 11.6522
566 2 5.99671 6.16829 17.6807
885 1 7.11983 7.71087 14.686
887 2 5.98894 6.16621 11.8027
894 2 6.08411 6.16646 14.6352
2185 1 7.12333 4.62428 14.6859
3062 1 4.95364 4.62119 11.7537
3071 2 4.0682 4.6187 10.121
3078 2 8.01189 4.62248 10.4336
508 1 10.9933 6.16721 10.2756
886 1 10.996 6.16326 16.154
884 1 10.1526 7.70662 13.3027
895 2 8.13117 7.70747 13.0813
896 2 9.97847 6.16506 11.8744
897 2 10.1052 6.16179 14.5231
2184 1 10.1614 4.61671 13.3059
2195 2 8.13751 4.62011 13.0838
3073 2 12.0468 4.63295 10.3245
3870 2 3.94673 4.62111 19.2313
2168 2 0.0409679 1.53316 16.11
2181 1 1.0869 3.07007 16.1628
3839 1 1.91858 1.53163 19.0102
3850 2 3.94771 1.52981 19.2331
587 2 9.99028 6.16786 17.7594
3872 2 1.98392 3.07175 17.7905
2160 1 4.12456 0.00318235 14.7804
2162 1 4.96333 1.53432 17.6325
2163 1 7.96638 -0.00178922 17.5404
2171 2 4.07104 1.53982 16.0021
2178 2 8.01964 1.53659 16.3172
2180 1 4.12237 3.08339 14.7782
2183 1 7.96364 3.08148 17.5376
3859 1 1.92137 4.61913 19.0078
3867 2 5.99899 3.07952 17.6825
2188 2 0.0541407 4.60923 16.1262
2173 2 12.0473 1.53619 16.2127
2186 1 11.0029 3.07497 16.1584
3844 1 10.1786 1.53867 19.1922
3855 2 8.14917 1.53489 18.9678
888 2 0.0452191 7.70356 16.1301
3876 2 9.99121 3.079 17.7612
881 1 1.0762 6.15975 16.1611
558 2 1.97608 6.16351 17.79
2198 2 8.01918 4.62423 16.3151
898 2 8.01849 7.71229 16.3141
1934 2 6.09045 6.16536 26.3893
3152 2 1.97684 3.07818 23.6672
3155 2 8.14719 4.62161 24.8399
3848 2 0.0438375 1.53762 21.9869
3153 2 12.054 4.62946 27.9608
3861 1 1.08449 3.07888 22.0371
3869 2 2.10329 3.07494 20.4389
3144 1 10.1749 4.62294 25.0626
3147 2 6.00335 3.08039 23.5598
1938 2 8.01567 7.71008 28.0682
3842 1 4.96605 1.53746 23.5115
1923 1 7.96124 6.16561 29.2869
3845 1 7.12859 1.53555 20.5659
3851 2 4.07323 1.5354 21.8818
1937 2 10.1155 6.16592 26.2824
3858 2 8.02372 1.53592 22.1941
3860 1 4.12773 3.07814 20.6609
3863 1 7.96898 3.07992 23.4125
3874 2 6.0915 3.07837 20.5139
1935 2 8.14142 7.70815 24.8386
3156 2 9.99849 3.08181 23.6347
1920 1 4.12714 6.16562 26.5373
3853 2 12.0613 1.54196 22.0913
3150 2 3.94744 4.62127 25.1094
3866 1 11.0232 3.08545 22.0382
3877 2 10.1239 3.08221 20.4109
557 2 2.10217 6.16424 20.4385
559 1 1.08648 6.16597 22.0379
560 2 0.050706 7.7081 21.9955
1932 2 1.97879 6.16546 23.6679
3868 2 0.0493397 4.62247 21.9917
568 1 4.12541 6.1667 20.6593
1933 2 12.0434 7.71287 27.9609
1926 1 11.0074 6.16793 27.9121
3148 2 0.0492369 4.62221 27.8674
577 2 6.08909 6.16652 20.5121
579 1 7.96318 6.16679 23.4108
580 2 8.0176 7.71106 22.1898
1927 2 5.99906 6.16757 23.5583
3862 1 4.96405 4.62293 23.5098
3865 1 7.12678 4.62326 20.5629
3871 2 4.07209 4.62231 21.8802
3878 2 8.0205 4.62336 22.1919
588 2 10.1169 6.16997 20.4061
589 1 11.0071 6.16757 22.0365
3139 1 1.92055 4.62156 24.8873
1936 2 9.99032 6.16651 23.6345
3873 2 12.0589 4.63249 22.0886
3119 1 1.91774 1.53646 24.8881
1924 1 10.1661 7.70987 25.0643
3128 2 0.0444102 1.53837 27.867
3158 2 8.01923 4.62197 28.0682
3130 2 3.94659 1.53552 25.1097
3141 1 1.08534 3.07926 27.9162
3149 2 2.10168 3.07814 26.316
3120 1 4.12753 -0.00503764 26.5381
3122 1 4.96318 1.53669 29.3893
3142 1 4.96272 4.62218 29.3877
3125 1 7.13193 1.5364 26.4397
3131 2 4.07184 1.53654 27.7589
3151 2 4.07162 4.62183 27.7577
3138 2 8.02262 1.53549 28.0703
3140 1 4.12843 3.07861 26.5376
3143 1 7.96506 3.07854 29.2887
3154 2 6.09257 3.07827 26.3899
3124 1 10.1823 1.53833 25.0651
1929 2 2.10215 6.16457 26.3155
3133 2 12.0595 1.54325 27.9677
3135 2 8.15328 1.53641 24.8425
1928 2 0.0509823 7.70814 27.8684
3146 1 11.0171 3.08395 27.9146
3157 2 10.1245 3.08139 26.2844
3145 1 7.12852 4.62252 26.438
1921 1 1.08697 6.16517 27.9161
1925 1 7.12508 7.71045 26.438
3121 1 1.08171 -0.00397489 27.9171
2739 1 1.91782 10.7983 1.36947
2741 1 1.08197 9.25055 4.39572
2748 2 0.048847 10.7939 4.33475
2749 2 2.1012 9.25231 2.79581
2750 2 3.94469 10.7987 1.59242
2752 2 1.97878 9.25436 0.147626
2740 1 4.12601 9.25434 3.01999
2745 1 7.12474 10.799 2.92281
2747 2 5.99589 9.25477 0.0398149
2751 2 4.06641 10.7979 4.24049
2754 2 6.09008 9.25405 2.87423
2758 2 8.01675 10.7993 4.55348
2744 1 10.1604 10.8013 1.54185
2746 1 10.991 9.25489 4.39045
2753 2 12.0236 10.8013 4.43318
2755 2 8.13767 10.7997 1.32025
2756 2 9.98346 9.25449 0.113242
2757 2 10.1038 9.25452 2.75923
3679 1 1.91332 13.8838 1.37186
3681 1 1.07479 12.3412 4.4008
3688 2 0.0358741 13.8819 4.34252
3689 2 2.09626 12.3415 2.79934
3690 2 3.94166 13.8862 1.59381
3692 2 1.97545 12.3418 0.148199
3680 1 4.12204 12.3422 3.02196
3685 1 7.12225 13.8862 2.92438
3687 2 5.99451 12.343 0.0412439
3691 2 4.06557 13.8851 4.24294
3694 2 6.08706 12.3421 2.87521
3698 2 8.01451 13.8867 4.55511
3684 1 10.1612 13.8919 1.54524
3686 1 10.9913 12.347 4.39304
3693 2 12.0278 13.8914 4.44326
3695 2 8.13775 13.8897 1.32298
3696 2 9.98254 12.345 0.115012
3697 2 10.1027 12.3463 2.76246
480 2 2.08785 9.25403 8.67946
481 2 1.97468 9.25532 6.02556
483 1 1.90648 10.8002 7.25043
492 2 3.9349 10.7991 7.47257
490 2 5.99177 9.25511 5.91898
491 1 4.11342 9.25558 8.90389
500 2 6.07955 9.25468 8.75162
502 1 7.1152 10.7987 8.80024
2742 1 4.9522 10.7978 5.87352
2743 1 7.9554 9.25487 5.77431
503 2 8.13411 10.7994 7.2008
510 2 9.98586 9.25485 5.99724
511 2 10.1008 9.25408 8.64096
513 1 10.1624 10.7992 7.42184
1359 1 1.89529 13.8845 7.25555
1369 2 2.09044 12.3452 8.68011
1370 2 3.93221 13.8881 7.47496
1372 2 1.96911 12.3463 6.02928
1360 1 4.1153 12.344 8.90053
1365 1 7.11672 13.8869 8.80141
1367 2 5.98981 12.3419 5.92206
1374 2 6.08049 12.3436 8.75192
3682 1 4.95005 13.8847 5.8768
3683 1 7.95376 12.3429 5.77529
1364 1 10.1645 13.8873 7.4253
1375 2 8.13668 13.8887 7.2033
1376 2 9.98382 12.344 5.99821
1377 2 10.1042 12.342 8.64355
3701 1 1.06841 15.4254 4.40201
3712 2 1.97131 15.4277 0.150479
3700 1 4.11908 15.4277 3.02354
3714 2 6.08458 15.4292 2.87624
475 1 1.92131 7.70901 7.24938
1392 2 1.95917 15.4263 6.03366
2722 1 4.95681 7.71026 5.87095
2738 2 8.01894 7.71095 4.55305
3703 1 7.95495 15.4295 5.77637
1397 2 10.1115 15.4279 8.64934
2719 1 1.92239 7.7097 1.36758
2725 1 7.12754 7.71069 2.92204
505 1 10.164 7.70933 7.42217
2731 2 4.0688 7.7096 4.23924
3709 2 2.09188 15.4274 2.80221
1387 2 5.9905 15.4279 5.92531
486 2 3.94168 7.70993 7.47171
2730 2 3.94768 7.70951 1.59124
497 2 8.13497 7.71001 7.20089
495 1 7.11533 7.7104 8.8004
482 1 1.03743 9.2429 10.2725
484 2 0.033487 10.8006 10.2056
899 1 1.89341 10.7875 13.1312
909 2 2.08959 9.25077 14.5605
910 2 3.92993 10.7935 13.3512
912 2 1.94864 9.24885 11.9022
493 1 4.94856 10.7976 11.7536
494 2 4.0636 10.8001 10.1208
501 1 7.9477 9.25359 11.6506
504 2 8.00615 10.798 10.4309
905 1 7.12 10.798 14.6869
907 2 5.98621 9.2535 11.8021
914 2 6.08294 9.25427 14.6345
512 1 10.9809 9.2535 10.2729
514 2 12.0281 10.7939 10.3176
904 1 10.1506 10.8013 13.3044
915 2 8.13076 10.7997 13.0815
916 2 9.97203 9.25324 11.8721
917 2 10.0949 9.25235 14.5184
959 1 1.90251 13.8738 13.1326
969 2 2.09076 12.3389 14.5618
970 2 3.93485 13.8826 13.3524
972 2 1.95883 12.3324 11.9105
1361 1 1.06619 12.3362 10.2786
1368 2 0.031379 13.8772 10.2257
965 1 7.12189 13.8851 14.6866
967 2 5.98823 12.3408 11.8025
974 2 6.08383 12.3419 14.6348
1362 1 4.95411 13.886 11.753
1363 1 7.95071 12.342 11.6508
1371 2 4.06336 13.8873 10.1229
1378 2 8.00761 13.8861 10.4319
964 1 10.1577 13.8937 13.3055
975 2 8.13441 13.8918 13.0826
976 2 9.97524 12.3435 11.872
977 2 10.1004 12.3488 14.5206
1366 1 10.9911 12.3395 10.2743
1373 2 12.0461 13.873 10.3197
562 2 1.96613 9.25676 17.7916
564 1 1.90759 10.8018 19.0103
573 2 3.93909 10.8013 19.2298
901 1 1.06959 9.25226 16.1607
908 2 0.0452544 10.8002 16.1215
571 2 5.99667 9.25608 17.6812
900 1 4.11552 9.25307 14.7775
902 1 4.95786 10.7997 17.6311
903 1 7.96165 9.25695 17.5378
911 2 4.06579 10.7961 16.0012
918 2 8.01871 10.7995 16.3147
584 2 8.14933 10.8044 18.9644
591 2 9.99078 9.25627 17.7587
594 1 10.1842 10.8074 19.1846
906 1 10.9868 9.25291 16.1477
913 2 12.0182 10.7959 16.1748
159 1 1.89968 13.8868 19.0132
170 2 3.93711 13.8902 19.2316
172 2 1.96703 12.347 17.7927
961 1 1.07148 12.3439 16.1634
968 2 0.0308776 13.8822 16.1068
167 2 5.99748 12.3434 17.6836
960 1 4.11675 12.3367 14.78
962 1 4.95836 13.8872 17.6348
963 1 7.96377 12.343 17.5388
971 2 4.06853 13.8806 16.003
978 2 8.0161 13.8867 16.3164
164 1 10.1898 13.8879 19.1935
175 2 8.15274 13.8892 18.9677
176 2 9.99219 12.3462 17.7569
966 1 10.9984 12.348 16.1501
973 2 12.034 13.8914 16.1768
989 2 2.08969 15.4249 14.5622
992 2 1.95938 15.4181 11.9092
1381 1 1.06086 15.4183 10.2795
994 2 6.08432 15.4294 14.6309
1383 1 7.95644 15.4286 11.6508
891 2 4.0656 7.7104 15.9993
882 1 4.95846 7.71207 17.6285
1386 1 11.0088 15.4157 10.2768
192 2 1.95771 15.4278 17.7896
981 1 1.06125 15.4262 16.1599
980 1 4.11769 15.4169 14.7814
983 1 7.96427 15.4248 17.5419
567 2 3.94291 7.71247 19.2296
586 1 10.1725 7.71382 19.1835
879 1 1.89417 7.70841 13.1241
488 1 4.94903 7.70908 11.7532
489 2 4.06615 7.70929 10.1196
509 2 12.0292 7.71402 10.3201
556 1 1.91709 7.71037 19.0068
987 2 5.99309 15.4302 11.8027
187 2 5.99805 15.4322 17.6872
890 2 3.92999 7.70931 13.3497
499 2 8.00688 7.70952 10.4312
578 2 8.14309 7.71227 18.9626
561 2 2.09721 9.25698 20.4391
563 1 1.07911 9.25619 22.0381
565 2 0.0425016 10.7978 21.9924
1952 2 1.97433 9.25498 23.6675
572 1 4.12266 9.25724 20.6576
574 1 4.96144 10.7992 23.5084
575 2 4.07046 10.8002 21.8784
581 2 6.08817 9.25688 20.5104
582 1 7.95979 9.2553 23.4095
583 1 7.12549 10.8008 20.5592
585 2 8.01618 10.7988 22.1897
1947 2 5.99734 9.25476 23.5586
592 2 10.1194 9.25948 20.4019
593 1 10.9964 9.25518 22.0364
595 2 12.0446 10.7882 22.1026
1956 2 9.98334 9.25163 23.6352
161 1 1.07486 12.342 22.0377
168 2 0.0410476 13.8847 21.992
169 2 2.09562 12.345 20.4403
2812 2 1.97275 12.3424 23.6663
160 1 4.12239 12.3443 20.6576
162 1 4.96382 13.8854 23.5093
163 1 7.96582 12.3435 23.4063
165 1 7.12576 13.888 20.5605
171 2 4.07047 13.8864 21.8797
174 2 6.088 12.3448 20.5095
178 2 8.01447 13.8884 22.1914
2807 2 6.00028 12.3418 23.559
166 1 11.0429 12.3543 22.0419
2817 2 10.1071 12.3433 26.2871
177 2 10.1353 12.3464 20.4125
2816 2 9.99373 12.3435 23.6323
1939 1 1.91805 10.7994 24.887
1941 1 1.08303 9.25449 27.9163
1948 2 0.0452317 10.797 27.8676
1949 2 2.10036 9.25374 26.3161
1950 2 3.94508 10.7989 25.1085
1940 1 4.12566 9.25472 26.5371
1942 1 4.95886 10.7984 29.3885
1943 1 7.95836 9.25472 29.2872
1945 1 7.12453 10.7996 26.4384
1951 2 4.07052 10.7982 27.7572
1954 2 6.08954 9.25481 26.3889
1958 2 8.0144 10.7995 28.069
1944 1 10.1628 10.7992 25.0646
1946 1 11.0002 9.2545 27.9112
1953 2 12.0376 10.7975 27.9684
1955 2 8.14156 10.8004 24.8386
1957 2 10.1049 9.25228 26.2845
2799 1 1.91686 13.8855 24.8868
2801 1 1.08004 12.3413 27.9159
2808 2 0.0431444 13.8843 27.867
2809 2 2.10043 12.3417 26.3172
2810 2 3.94397 13.8866 25.1085
2800 1 4.12486 12.3428 26.5377
2802 1 4.95731 13.8864 29.3904
2803 1 7.95723 12.3441 29.2884
2805 1 7.12366 13.8877 26.4398
2811 2 4.06943 13.8861 27.7586
2814 2 6.08842 12.3435 26.3901
2818 2 8.01359 13.8887 28.0707
2804 1 10.1619 13.8892 25.0637
2806 1 11.0039 12.3441 27.9148
2813 2 12.0475 13.883 27.9731
2815 2 8.14177 13.8887 24.8404
181 1 1.07235 15.4285 22.0381
180 1 4.1211 15.4283 20.6584
173 2 12.0916 13.8833 22.1015
186 1 11.0513 15.4184 22.0456
197 2 10.1376 15.4277 20.4169
2821 1 1.07811 15.4281 27.9169
2820 1 4.12324 15.4294 26.5387
1931 2 4.07123 7.70988 27.7567
2826 1 11.0112 15.4271 27.9181
1930 2 3.94601 7.71056 25.1088
569 1 4.96097 7.7108 23.5082
570 2 4.07097 7.71186 21.8779
1919 1 1.92023 7.71046 24.8869
2832 2 1.97009 15.4292 23.6667
1922 1 4.96126 7.71 29.3871
576 1 7.12318 7.71187 20.5608
590 2 12.0406 7.71397 22.0882
2641 1 1.0711 18.5124 4.40207
2649 2 2.09118 18.514 2.80331
2652 2 1.96815 18.5139 0.154181
3699 1 1.91077 16.9688 1.37377
837 2 10.1168 21.599 8.59004
3708 2 0.0348963 16.9699 4.34859
835 2 8.14994 23.1415 7.18736
3710 2 3.93856 16.9717 1.59561
836 2 9.99486 21.6001 5.96753
2640 1 4.11809 18.5131 3.02507
2647 2 5.99536 18.5153 0.0464164
2654 2 6.08259 18.5138 2.87507
815 2 8.14391 20.0574 7.19338
3705 1 7.12203 16.9717 2.92368
3707 2 5.99443 15.4302 0.043718
3711 2 4.06223 16.9704 4.24493
804 1 10.1773 20.0445 7.38581
3718 2 8.01278 16.9718 4.55526
2646 1 11.0155 18.5191 4.39282
2656 2 9.99047 18.5186 0.118749
2657 2 10.1181 18.5209 2.7674
3704 1 10.169 16.9771 1.5462
3706 1 10.9979 15.4374 4.39768
3713 2 12.0461 16.9744 4.45127
3715 2 8.14158 16.977 1.32526
2663 1 7.95403 21.598 5.75953
3717 2 10.1075 15.4361 2.76723
2639 1 1.91142 20.0562 1.37587
2648 2 0.0393384 20.0589 4.35308
2650 2 3.9384 20.0575 1.5983
2661 1 1.07738 21.6005 4.40603
2669 2 2.09365 21.6014 2.80593
2672 2 1.96857 21.6017 0.158136
2645 1 7.12082 20.0558 2.91812
2651 2 4.06264 20.0562 4.24697
2658 2 8.00928 20.0538 4.5495
2660 1 4.11938 21.6 3.02752
2667 2 5.99765 21.6002 0.047448
2674 2 6.08334 21.5995 2.87378
2644 1 10.1774 20.0585 1.54176
2653 2 12.0612 20.0576 4.45431
2655 2 8.14568 20.0609 1.32485
2666 1 11.0277 21.6012 4.37797
2676 2 9.9962 21.6012 0.115688
2677 2 10.1271 21.6031 2.75847
809 2 2.08398 18.512 8.68166
812 2 1.95755 18.5113 6.03571
1379 1 1.89608 16.9667 7.25539
1389 2 2.08676 15.4284 8.68359
1390 2 3.93096 16.9725 7.47542
2642 1 4.95158 20.0549 5.87785
800 1 4.11593 18.5158 8.90003
807 2 5.98952 18.5118 5.92774
814 2 6.08626 18.5192 8.75929
834 2 6.0974 21.603 8.77278
1385 1 7.11965 16.9732 8.79987
824 1 10.1833 23.1419 7.36146
827 2 5.99141 21.5974 5.93025
2643 1 7.95339 18.5135 5.77159
3702 1 4.94947 16.9691 5.87684
820 1 4.12604 21.6046 8.91203
816 2 9.99053 18.5179 5.99047
817 2 10.1246 18.5224 8.64444
1384 1 10.1702 16.97 7.42867
1395 2 8.14279 16.9767 7.20416
1396 2 9.9839 15.4337 5.99941
805 1 7.13188 20.0575 8.79539
799 1 1.90598 20.0548 7.25588
810 2 3.93574 20.0576 7.47948
829 2 2.09224 21.6004 8.68915
832 2 1.96634 21.5998 6.03886
2659 1 1.91227 23.1445 1.37827
2678 2 8.01085 23.1412 4.5457
2664 1 10.1821 23.1428 1.53664
819 1 1.90878 23.141 7.26113
2662 1 4.95561 23.1417 5.87949
2670 2 3.94057 23.1439 1.60059
2665 1 7.12224 23.1419 2.91494
2671 2 4.06559 23.143 4.24922
2673 2 12.0685 23.1422 4.45694
830 2 3.94215 23.1411 7.48502
825 1 7.14594 23.1401 8.79416
3716 2 9.98556 15.4327 0.117378
1380 1 4.11489 15.4302 8.90175
1394 2 6.08143 15.4315 8.75369
2002 1 4.95794 20.0578 8.37135e-04
719 2 2.07971 18.5072 14.5506
720 2 1.94224 18.4931 11.8998
801 1 1.0487 18.4986 10.2683
979 1 1.89294 16.9529 13.1316
1156 2 9.98238 21.6217 17.7644
990 2 3.93503 16.9712 13.3526
1135 2 8.14025 20.055 19.0085
1124 1 10.1999 20.0452 19.2148
1388 2 0.0171494 16.9551 10.2203
728 2 6.00322 18.5143 11.8108
739 2 6.09474 18.5302 14.6332
803 1 7.96302 18.5091 11.6415
985 1 7.11877 16.9733 14.6816
1144 1 10.2031 23.1384 19.2045
758 2 12.1027 23.1431 16.2127
1382 1 4.95482 16.9718 11.7536
756 1 11.093 21.5871 16.2203
1391 2 4.06625 16.9762 10.123
1398 2 8.01516 16.971 10.4295
750 2 9.99065 18.5257 11.8735
751 2 10.0954 18.5428 14.5304
806 1 11.0184 18.4932 10.2735
984 1 10.1626 16.9787 13.3101
995 2 8.14087 16.9895 13.0822
753 2 12.0757 20.0431 16.199
1147 2 5.97003 21.6714 17.597
1139 1 1.85252 23.1419 19.0694
1393 2 12.0548 16.9554 10.3305
718 1 1.86884 20.0279 13.1032
723 2 2.0776 21.6128 14.5794
724 2 1.94363 21.5942 11.9174
726 1 1.87746 23.1398 13.1242
729 2 3.91017 20.0328 13.3192
735 2 3.93097 23.1407 13.3723
808 2 0.024251 20.0498 10.2306
821 1 1.05697 21.5939 10.2742
733 2 6.00064 21.601 11.8398
738 1 7.14125 20.0695 14.6984
743 2 6.02733 21.5629 14.6169
802 1 4.96965 20.0541 11.7405
811 2 4.06773 20.0601 10.1241
818 2 8.02945 20.0571 10.433
823 1 7.93755 21.5849 11.6405
740 2 8.16602 20.1184 13.098
745 2 8.35816 23.1426 12.9848
746 1 8.8259 23.1463 14.7689
749 1 10.1771 20.047 13.2844
754 2 10.0736 21.5199 11.7737
755 2 10.0576 21.6839 14.6175
747 2 7.91764 23.1398 16.3625
813 2 12.0933 20.0171 10.3348
826 1 11.0894 21.5427 10.1361
179 1 1.89955 16.9685 19.011
190 2 3.93442 16.982 19.229
744 1 7.95864 21.532 17.6899
721 1 1.07227 18.5118 16.1605
742 2 7.98259 20.0953 16.355
988 2 0.0320659 16.9721 16.1087
1132 2 1.96687 18.5174 17.7918
822 1 4.95985 23.1415 11.7794
730 1 4.11603 18.4841 14.7795
741 1 7.95941 18.4982 17.5391
737 2 4.28454 23.1407 15.9663
982 1 4.96082 16.9776 17.6387
734 1 4.04581 21.5 14.6894
991 2 4.07081 16.961 16.0055
998 2 8.01374 16.9689 16.3135
1127 2 5.98896 18.535 17.6807
184 1 10.1921 16.9626 19.192
195 2 8.1507 16.9776 18.9682
732 2 4.01263 20.0351 16.005
752 1 11.003 18.5186 16.1579
731 1 4.9472 20.0793 17.617
993 2 12.0371 16.9839 16.1882
1136 2 9.98088 18.5327 17.7603
722 2 0.0386746 20.0577 16.1197
725 1 1.05579 21.5987 16.1893
1152 2 2.00679 21.6297 17.7963
1119 1 1.91353 20.06 19.0144
1130 2 3.94258 20.0768 19.2328
831 2 4.07693 23.1412 10.142
838 2 8.03225 23.1405 10.442
736 1 4.78085 23.1398 17.8126
757 1 10.4535 23.1391 12.6819
833 2 12.0349 23.1409 10.3793
1150 2 3.87596 23.1417 19.3558
1155 2 8.12782 23.14 18.9742
996 2 9.98161 15.4323 11.873
997 2 10.1029 15.4402 14.5269
196 2 9.99097 15.4351 17.7581
986 1 11.0072 15.4372 16.1551
2037 2 10.1277 21.6024 26.2921
188 2 0.0375333 16.971 21.9892
189 2 2.09293 15.4298 20.4391
1121 1 1.07094 18.513 22.0425
1129 2 2.09091 18.5213 20.4418
2012 2 1.9657 18.517 23.6721
2005 1 7.12354 20.0594 26.4493
2026 1 11.024 21.5995 27.9197
182 1 4.95738 16.9694 23.5103
2015 2 8.14712 20.063 24.8537
185 1 7.12548 16.9743 20.564
191 2 4.06376 16.9698 21.8804
194 2 6.0871 15.4319 20.5092
198 2 8.01437 16.979 22.1947
1120 1 4.11469 18.5092 20.6565
1123 1 7.96316 18.5149 23.4234
1134 2 6.07867 18.514 20.5061
2007 2 5.99773 18.5123 23.5621
2827 2 5.99989 15.43 23.5597
2013 2 12.0587 20.0553 27.9749
193 2 12.0561 16.9798 22.1119
2004 1 10.179 20.0594 25.0747
1126 1 11.0171 18.5132 22.0506
1137 2 10.1297 18.5082 20.4142
2016 2 9.98899 18.5233 23.6429
2836 2 9.99544 15.4332 23.6345
1128 2 0.0291062 20.0526 21.9947
1141 1 1.05603 21.5962 22.0635
1149 2 2.07513 21.5962 20.4656
2032 2 1.9635 21.6009 23.6826
1122 1 4.95742 20.051 23.5322
1125 1 7.09626 20.0596 20.6028
1131 2 4.06639 20.0434 21.8978
1138 2 8.00938 20.0656 22.2087
1140 1 4.09964 21.5871 20.7212
1143 1 7.96438 21.6009 23.4374
1154 2 6.06633 21.6069 20.471
2027 2 5.99465 21.5965 23.5603
1133 2 12.0563 20.0557 22.0922
1146 1 11.0234 21.5983 22.0537
1157 2 10.1261 21.5994 20.4156
2036 2 9.99471 21.6033 23.6442
2001 1 1.07522 18.5145 27.9217
2009 2 2.09375 18.5159 26.3225
2819 1 1.91269 16.9704 24.8889
2034 2 6.08361 21.602 26.391
2828 2 0.0403468 16.9707 27.8701
2829 2 2.09815 15.4294 26.3182
2830 2 3.94024 16.9737 25.1107
2000 1 4.12077 18.5144 26.5445
2003 1 7.96065 18.5165 29.2951
2014 2 6.08567 18.5172 26.3912
2023 1 7.9641 21.6007 29.2959
2822 1 4.95628 16.9725 29.3932
2020 1 4.11909 21.6011 26.5551
2825 1 7.12448 16.9742 26.4428
2831 2 4.0671 16.9719 27.7617
2834 2 6.08724 15.4314 26.3911
2838 2 8.01412 16.9758 28.0736
2006 1 11.0155 18.5144 27.9196
2017 2 10.1156 18.5192 26.2941
2824 1 10.1715 16.9751 25.0703
2018 2 8.01539 20.0599 28.0766
2833 2 12.049 16.9703 27.979
2835 2 8.14585 16.9752 24.845
2011 2 4.06612 20.0568 27.7679
1999 1 1.90731 20.055 24.9009
2008 2 0.0412447 20.0595 27.8728
2010 2 3.93682 20.0583 25.1221
2021 1 1.07569 21.6026 27.9265
2029 2 2.09334 21.6021 26.3284
2837 2 10.1102 15.4314 26.2918
1145 1 7.11335 23.1408 20.5939
1151 2 4.06161 23.1422 21.9211
1158 2 8.01065 23.1414 22.2084
1153 2 12.0668 23.1376 22.0901
2038 2 8.01862 23.1427 28.076
183 1 7.96691 15.4313 23.4088
2823 1 7.95836 15.4318 29.2914
1439 1 1.91273 26.2302 1.37637
1441 1 1.0786 24.6853 4.40647
1448 2 0.0397072 26.2273 4.35604
1449 2 2.09511 24.6869 2.80624
1450 2 3.94194 26.2282 1.59768
1452 2 1.96924 24.6871 0.157543
3237 2 10.1323 27.7617 8.64607
2668 2 0.0404515 23.1437 4.35606
3056 2 9.99464 30.8491 6.00055
1440 1 4.12177 24.6857 3.027
1445 1 7.12673 26.2275 2.91806
1447 2 6.00062 24.6856 0.0468524
1451 2 4.06748 26.2284 4.24659
1454 2 6.08619 24.6858 2.87336
1458 2 8.01556 26.2284 4.54952
3049 2 2.09804 30.8468 8.68169
3937 2 10.1217 30.8492 2.76884
3236 2 9.99902 27.7658 5.99146
1444 1 10.1836 26.2275 1.54161
1446 1 11.0301 24.6846 4.37809
1453 2 12.0661 26.2269 4.45403
1455 2 8.15209 26.2256 1.32448
1456 2 9.99956 24.6835 0.115442
1457 2 10.1305 24.6834 2.7581
3235 2 8.15222 29.3053 7.20539
3936 2 9.99792 30.851 0.117422
2675 2 8.14878 23.1432 1.32297
1459 1 1.91411 29.3129 1.37365
1461 1 1.07827 27.7689 4.40284
1468 2 0.0389712 29.3106 4.35316
1469 2 2.09606 27.7705 2.80313
1470 2 3.94401 29.3106 1.59428
1472 2 1.97065 27.7707 0.153609
1460 1 4.12453 27.7699 3.02334
1465 1 7.13186 29.3103 2.92355
1467 2 6.00253 27.7691 0.0452583
1471 2 4.06957 29.3114 4.24379
1474 2 6.08967 27.77 2.87421
1478 2 8.02216 29.3096 4.5555
1464 1 10.1818 29.3092 1.54676
1466 1 11.0238 27.7673 4.39353
1473 2 12.058 29.3103 4.45229
1475 2 8.15238 29.3078 1.32541
1476 2 10.0007 27.7672 0.118347
1477 2 10.1283 27.7657 2.767
3224 1 10.18 29.3139 7.42994
3220 1 4.12578 27.7629 8.90098
3199 1 1.91183 26.2255 7.25678
3209 2 2.09443 24.6819 8.68973
3210 2 3.94256 26.2222 7.48025
3212 2 1.96852 24.6825 6.03902
1463 1 7.96132 27.7686 5.77238
1442 1 4.95647 26.2275 5.87748
1443 1 7.95698 24.6845 5.75969
3234 2 6.09576 27.7619 8.76225
3200 1 4.12952 24.6768 8.91228
3205 1 7.1394 26.2227 8.79761
3207 2 5.99451 24.6843 5.9301
3214 2 6.10124 24.6794 8.77387
3227 2 5.99733 27.7688 5.92771
3225 1 7.1314 29.3066 8.80287
3204 1 10.183 26.2397 7.3868
3215 2 8.14984 26.2257 7.1942
3216 2 9.9978 24.6831 5.96793
3217 2 10.1196 24.6851 8.59051
3219 1 1.91268 29.3089 7.25343
3229 2 2.09359 27.7658 8.68183
3230 2 3.94326 29.3053 7.47558
3232 2 1.97012 27.7664 6.03373
1462 1 4.95889 29.3115 5.87463
3921 1 1.08006 30.8512 4.40044
3927 2 6.00257 30.8518 0.0427348
3926 1 11.0127 30.8487 4.40021
3052 2 1.97383 30.8484 6.03032
3040 1 4.12628 30.8469 8.90292
3054 2 6.09201 30.8474 8.75683
2022 1 4.96087 23.1437 0.00430797
3282 1 4.96195 26.2284 4.69118e-04
828 2 0.0233106 23.1396 10.2341
2319 1 1.87272 26.2492 13.1042
2329 2 2.07892 24.6718 14.5794
2330 2 3.91535 26.2463 13.3198
2332 2 1.94557 24.6845 11.9171
3201 1 1.058 24.684 10.2742
3208 2 0.024369 26.2292 10.2324
2353 2 12.0564 29.3095 16.212
727 2 0.0294433 23.1439 16.1297
3852 2 1.97249 30.8463 17.7871
2325 1 7.14454 26.2102 14.7005
2327 2 6.00489 24.6796 11.8406
2334 2 6.03131 24.7161 14.6177
3202 1 4.97561 26.2272 11.7418
3203 1 7.9423 24.6966 11.642
3211 2 4.07384 26.2207 10.1254
3218 2 8.03765 26.2244 10.4355
2177 2 10.1163 30.8451 14.5343
2324 1 10.1834 26.2379 13.2911
2335 2 8.17237 26.1663 13.1016
2336 2 10.0774 24.7619 11.7768
2337 2 10.0582 24.6077 14.6229
3206 1 11.0904 24.7399 10.1379
3213 2 12.0964 26.2643 10.3363
2339 1 1.90142 29.3213 13.1297
2349 2 2.08541 27.7723 14.5507
2350 2 3.94218 29.3065 13.3526
2352 2 1.95116 27.782 11.8994
3221 1 1.05859 27.7743 10.2678
3228 2 0.0245353 29.3176 10.2227
2345 1 7.12457 29.306 14.6823
2347 2 6.01177 27.7657 11.8131
2354 2 6.09946 27.7499 14.6349
3222 1 4.96323 29.3075 11.7545
3223 1 7.97218 27.7722 11.646
3231 2 4.0746 29.3025 10.1241
3238 2 8.02696 29.31 10.4334
2344 1 10.175 29.3068 13.3155
2355 2 8.15074 29.2928 13.0866
2356 2 10.0005 27.7583 11.8798
2357 2 10.1121 27.746 14.5372
3226 1 11.0239 27.789 10.2766
3233 2 12.0604 29.3261 10.3375
2346 1 11.0173 27.7725 16.166
1555 2 8.14943 29.2998 18.9688
1519 1 1.91567 26.2209 19.0151
1530 2 3.94623 26.2035 19.2344
1532 2 2.00716 24.6539 17.7957
2321 1 1.05523 24.6883 16.1888
2328 2 0.0346977 26.2284 16.1173
1527 2 5.97154 24.6075 17.5988
2320 1 4.04834 24.7797 14.69
2322 1 4.94976 26.1995 17.6184
2323 1 7.95961 24.7467 17.6923
2331 2 4.01701 26.2438 16.0055
2338 2 7.9863 26.1833 16.3568
1556 2 9.98609 27.7493 17.7633
1544 1 10.1825 29.312 19.1947
1524 1 10.2025 26.2315 19.2183
1535 2 8.14423 26.2253 19.0102
1536 2 9.98491 24.6592 17.7673
2326 1 11.0951 24.7007 16.2236
2333 2 12.0827 26.2429 16.2064
1539 1 1.91208 29.3067 19.0097
1550 2 3.94318 29.2955 19.2309
1552 2 1.97676 27.7601 17.7892
2341 1 1.07764 27.7682 16.1601
2348 2 0.0351307 29.3076 16.1092
1547 2 5.99282 27.743 17.6813
2340 1 4.12117 27.7939 14.7801
2342 1 4.96588 29.3006 17.6381
2343 1 7.9627 27.7799 17.5384
2351 2 4.07513 29.3175 16.0054
2358 2 8.01832 29.3107 16.3149
2167 2 6.00214 30.8485 11.805
2174 2 6.09031 30.8499 14.6322
2176 2 9.99241 30.8502 11.881
2161 1 1.07521 30.8476 16.1584
3847 2 6.0016 30.8465 17.6862
2166 1 11.0142 30.8503 16.1634
3856 2 9.99367 30.8473 17.7628
748 1 6.2062 23.1388 15.5408
1148 2 0.0262779 23.1424 21.9919
1521 1 1.05497 24.6886 22.063
1528 2 0.0253626 26.2324 21.9929
1529 2 2.07548 24.6887 20.4657
3292 2 1.96269 24.6861 23.6821
3317 2 10.1341 27.7693 26.2903
3134 2 6.09296 30.8512 26.3906
3129 2 2.09891 30.852 26.3171
3136 2 10.0011 30.8515 23.6379
1520 1 4.10165 24.6961 20.7213
1522 1 4.962 26.233 23.5334
1523 1 7.96826 24.6827 23.4377
1525 1 7.10164 26.2219 20.6051
1531 2 4.06919 26.2387 21.8998
1534 2 6.069 24.6764 20.4726
1538 2 8.01591 26.2176 22.2105
3287 2 5.99813 24.6872 23.5612
3854 2 6.09191 30.8483 20.5141
1526 1 11.0291 24.681 22.0541
1533 2 12.0662 26.224 22.0893
1537 2 10.1301 24.6774 20.4174
3296 2 9.99981 24.6807 23.6441
1541 1 1.07451 27.7679 22.0416
1548 2 0.0386405 29.3108 21.9871
1549 2 2.09536 27.759 20.4417
3312 2 1.96728 27.7667 23.6716
1540 1 4.12003 27.7705 20.6586
1542 1 4.96227 29.3121 23.5122
1543 1 7.97174 27.7684 23.4251
1545 1 7.12951 29.3064 20.5689
1551 2 4.0676 29.3101 21.8828
1554 2 6.08354 27.7669 20.5099
1558 2 8.02377 29.3049 22.1972
3307 2 6.00469 27.7707 23.5627
1546 1 11.0295 27.7693 22.0501
1553 2 12.0653 29.3124 22.0938
1557 2 10.1323 27.7689 20.4183
3316 2 10.0017 27.7642 23.642
3315 2 8.15588 29.3084 24.8469
2028 2 0.0389924 23.1456 27.8722
2030 2 3.937 23.1442 25.1319
3279 1 1.90741 26.2304 24.9011
3281 1 1.07528 24.6879 27.9264
3288 2 0.0379976 26.2302 27.8707
3289 2 2.09369 24.6878 26.3284
3290 2 3.93895 26.2277 25.1218
3313 2 12.0633 29.3141 27.9709
3306 1 11.0264 27.7705 27.9205
2031 2 4.06609 23.1442 27.7734
3127 2 6.00479 30.8517 23.5611
3280 1 4.12066 24.6866 26.5547
1142 1 4.9597 23.1428 23.5457
3283 1 7.96714 24.6849 29.2954
3285 1 7.12867 26.2262 26.449
3291 2 4.06872 26.2301 27.768
3294 2 6.08593 24.6855 26.3911
3298 2 8.02228 26.2259 28.0758
3304 1 10.1861 29.3113 25.0692
2033 2 12.065 23.1409 27.9722
2035 2 8.14786 23.1435 24.8539
3284 1 10.1876 26.2266 25.0736
3286 1 11.0274 24.6844 27.9199
3293 2 12.0653 26.2273 27.9718