# LAMMPS data file written by OVITO Basic 3.7.11
3998 atoms
2 atom types
0.0 48.4282885418 xlo xhi
0.0 30.8572093325 ylo yhi
0.0 29.396923244 zlo zhi

Atoms  # atomic

3919 1 1.91768 1.53752 1.37145
3070 2 3.9436 4.62045 7.47213
3928 2 0.0430377 1.536 4.34703
3075 2 8.14017 4.62176 7.20294
3930 2 3.94726 1.53534 1.59255
3932 2 1.97387 -0.00447922 0.150521
3941 1 1.08556 3.07626 4.39859
3949 2 2.10252 3.07695 2.79766
3952 2 1.97894 3.0784 0.148615
3920 1 4.12781 -0.00488245 3.02076
3925 1 7.13231 1.5368 2.92352
3059 1 1.91974 4.61927 7.24719
3931 2 4.07268 1.53635 4.24153
3934 2 6.0934 -0.00542322 2.87502
3938 2 8.02251 1.5366 4.55549
3940 1 4.12949 3.07851 3.01979
3947 2 6.00085 3.07928 0.0400595
3954 2 6.0942 3.07911 2.8743
3924 1 10.1757 1.53345 1.54421
477 2 1.98173 6.16348 6.02325
3933 2 12.0459 1.53607 4.45024
3935 2 8.14844 1.53424 1.32237
3064 1 10.1688 4.62165 7.42662
507 2 10.1066 6.16684 8.64451
3946 1 10.9996 3.07358 4.39666
3956 2 9.99337 3.07927 0.11371
3957 2 10.1129 3.07548 2.76389
506 2 9.98711 6.16642 5.9983
2721 1 1.08481 6.16356 4.39563
2728 2 0.0498231 7.70581 4.33476
2729 2 2.10316 6.16363 2.79557
476 2 2.09238 6.1616 8.67832
2732 2 1.98095 6.1649 0.147966
3939 1 1.92172 4.62155 1.3692
3948 2 0.0511999 4.61863 4.33795
3950 2 3.94863 4.62085 1.59162
2720 1 4.1285 6.1654 3.01928
485 2 5.99472 6.16702 5.91923
2727 2 5.99818 6.16628 0.0390791
3942 1 4.95839 4.62304 5.87143
2734 2 6.09258 6.16588 2.87387
3065 1 7.12189 4.62243 8.80226
3945 1 7.13047 4.62305 2.92248
3951 2 4.07116 4.62167 4.23938
3958 2 8.02113 4.62303 4.55399
2723 1 7.95813 6.16666 5.7751
2726 1 10.9931 6.16314 4.39213
2733 2 12.0247 7.70913 4.43208
2735 2 8.13972 7.70905 1.31912
2736 2 9.98763 6.16579 0.112249
2737 2 10.1065 6.1634 2.76006
3944 1 10.1685 4.619 1.54157
3953 2 12.0301 4.61923 4.44067
3955 2 8.14369 4.62042 1.31985
3039 1 1.91721 1.53376 7.25051
496 2 6.08269 6.16423 8.75229
3050 2 3.94564 1.53109 7.47363
3077 2 10.1135 3.08074 8.64985
3069 2 2.10138 3.07138 8.67735
3072 2 1.98265 3.07316 6.02555
3076 2 9.9883 3.07787 5.99992
3045 1 7.12765 1.53458 8.80433
3057 2 10.1205 -0.00275483 8.65236
487 1 4.11746 6.16417 8.90413
3060 1 4.12521 3.07585 8.90107
3067 2 5.99768 3.08039 5.9222
3074 2 6.08896 3.07639 8.75397
3922 1 4.96097 1.53674 5.87327
3923 1 7.96569 -0.00570272 5.77705
3943 1 7.96117 3.07958 5.77648
3044 1 10.1742 1.53781 7.42857
3055 2 8.14581 1.53396 7.20548
2724 1 10.1632 7.70893 1.54048
3047 2 6.00082 -0.00563585 5.92484
3929 2 2.09855 -0.00509343 2.80055
2159 1 1.90993 1.54277 13.1307
2169 2 2.09636 -0.00573567 14.5592
2170 2 3.94188 1.5359 13.3518
2172 2 1.9667 -9.92393e-04 11.9087
2189 2 2.09643 3.07676 14.5584
2192 2 1.96626 3.08305 11.9102
3041 1 1.07318 -0.00425233 10.2774
3048 2 0.0389437 1.53677 10.2235
3061 1 1.08059 3.07625 10.2763
2165 1 7.12762 1.53715 14.686
2182 1 4.96052 4.62347 17.6292
883 1 7.96124 6.16852 17.536
2187 2 5.9955 3.07938 11.8036
2194 2 6.08827 3.07945 14.6355
3042 1 4.96201 1.5343 11.7533
3043 1 7.96608 -0.00526059 11.6558
3051 2 4.07139 1.53245 10.123
3058 2 8.01811 1.53564 10.4355
3063 1 7.95941 3.07938 11.654
2164 1 10.1712 1.53165 13.3083
2175 2 8.14403 1.53145 13.0855
2191 2 4.06679 4.62398 16.0002
3875 2 8.14541 4.62317 18.9643
2196 2 9.98624 3.07922 11.8766
2197 2 10.1101 3.07256 14.5281
3046 1 11.015 0.00839883 10.2818
3053 2 12.0519 1.54884 10.333
3066 1 11.0086 3.08866 10.2786
478 1 1.04461 6.17143 10.2716
479 2 0.00822705 7.70435 10.2066
3864 1 10.1746 4.62466 19.1883
889 2 2.09205 6.1637 14.5592
880 1 4.11749 6.16744 14.7769
892 2 1.95326 6.16725 11.9018
2179 1 1.89841 4.62951 13.1296
2190 2 3.93422 4.62455 13.3506
3068 2 0.042457 4.60956 10.2067
2193 2 12.0344 4.62046 16.2007
893 2 12.0258 7.7105 16.19
498 1 7.95163 6.16569 11.6521
566 2 5.99675 6.1683 17.6807
885 1 7.11987 7.71086 14.6859
887 2 5.98899 6.16617 11.8027
894 2 6.08415 6.16646 14.6351
2185 1 7.12335 4.62427 14.6858
3062 1 4.95368 4.62114 11.7537
3071 2 4.06825 4.61867 10.121
3078 2 8.01193 4.62245 10.4335
508 1 10.9933 6.16718 10.2755
886 1 10.9961 6.16327 16.1539
884 1 10.1527 7.70662 13.3026
895 2 8.13126 7.70745 13.0813
896 2 9.97855 6.16506 11.8743
897 2 10.1053 6.16179 14.523
2184 1 10.1614 4.61671 13.3057
2195 2 8.13756 4.6201 13.0837
3073 2 12.0468 4.63292 10.3244
3870 2 3.94678 4.62108 19.2313
2168 2 0.0410119 1.53311 16.1101
2181 1 1.08694 3.07003 16.1628
3839 1 1.91861 1.5316 19.0102
3850 2 3.94775 1.52979 19.233
587 2 9.9903 6.1679 17.7593
3872 2 1.98398 3.07172 17.7905
2160 1 4.1246 0.00314298 14.7803
2162 1 4.96337 1.5343 17.6324
2163 1 7.96639 -0.00177672 17.5403
2171 2 4.07108 1.53979 16.002
2178 2 8.01961 1.53661 16.3171
2180 1 4.12239 3.08338 14.7782
2183 1 7.96364 3.08151 17.5375
3859 1 1.9214 4.61908 19.0078
3867 2 5.999 3.07952 17.6824
2188 2 0.0541751 4.60919 16.1262
2173 2 12.0473 1.53622 16.2126
2186 1 11.0029 3.07498 16.1582
3844 1 10.1787 1.53871 19.1921
3855 2 8.14919 1.5349 18.9677
888 2 0.0452097 7.70351 16.1301
3876 2 9.99121 3.07903 17.7611
881 1 1.07623 6.15972 16.1611
558 2 1.97611 6.16346 17.79
2198 2 8.01916 4.62426 16.315
898 2 8.0185 7.71232 16.314
1934 2 6.09048 6.16535 26.3893
3152 2 1.97681 3.07815 23.6672
3155 2 8.14724 4.62162 24.8399
3848 2 0.0438538 1.53759 21.9869
3153 2 12.0541 4.62946 27.9606
3861 1 1.08452 3.07885 22.0371
3869 2 2.10334 3.07491 20.439
3144 1 10.1749 4.62297 25.0626
3147 2 6.00343 3.08041 23.5598
1938 2 8.01574 7.71009 28.0681
3842 1 4.96614 1.53748 23.5115
1923 1 7.96131 6.16561 29.2868
3845 1 7.12867 1.53556 20.5658
3851 2 4.07332 1.53539 21.8818
1937 2 10.1155 6.16594 26.2824
3858 2 8.02375 1.53593 22.194
3860 1 4.1278 3.07812 20.6609
3863 1 7.96904 3.07993 23.4124
3874 2 6.09157 3.07838 20.5138
1935 2 8.14146 7.70817 24.8386
3156 2 9.99853 3.08183 23.6346
1920 1 4.12717 6.16563 26.5373
3853 2 12.0613 1.54202 22.0911
3150 2 3.94748 4.62127 25.1094
3866 1 11.0231 3.0855 22.038
3877 2 10.1239 3.08226 20.4108
557 2 2.10221 6.16419 20.4385
559 1 1.0865 6.16594 22.0379
560 2 0.0507283 7.70807 21.9955
1932 2 1.97878 6.16544 23.6679
3868 2 0.0493488 4.62243 21.9917
568 1 4.12548 6.16668 20.6593
1933 2 12.0435 7.71288 27.9608
1926 1 11.0075 6.16792 27.912
3148 2 0.0492291 4.62215 27.8675
577 2 6.08916 6.16654 20.5121
579 1 7.96322 6.16681 23.4107
580 2 8.01766 7.71108 22.1897
1927 2 5.99913 6.16759 23.5583
3862 1 4.96412 4.62295 23.5097
3865 1 7.12684 4.62328 20.5629
3871 2 4.07217 4.62231 21.8802
3878 2 8.02056 4.62337 22.1918
588 2 10.1169 6.17006 20.406
589 1 11.0071 6.16765 22.0364
3139 1 1.92057 4.62154 24.8873
1936 2 9.99035 6.16654 23.6344
3873 2 12.0589 4.63255 22.0884
3119 1 1.91776 1.53644 24.8881
1924 1 10.1661 7.7099 25.0642
3128 2 0.0443961 1.53833 27.8671
3158 2 8.01926 4.62197 28.0682
3130 2 3.94664 1.53551 25.1096
3141 1 1.08534 3.07921 27.9162
3149 2 2.10172 3.07811 26.316
3120 1 4.12759 -0.00506503 26.538
3122 1 4.96321 1.53668 29.3893
3142 1 4.96276 4.62216 29.3877
3125 1 7.13197 1.53636 26.4396
3131 2 4.07191 1.53652 27.7589
3151 2 4.07166 4.62182 27.7576
3138 2 8.02267 1.53548 28.0702
3140 1 4.12848 3.07859 26.5375
3143 1 7.96511 3.07855 29.2886
3154 2 6.09262 3.07824 26.3898
3124 1 10.1824 1.53836 25.065
1929 2 2.10218 6.16455 26.3155
3133 2 12.0595 1.54325 27.9676
3135 2 8.15332 1.5364 24.8424
1928 2 0.0509786 7.70808 27.8684
3146 1 11.0172 3.08394 27.9145
3157 2 10.1245 3.08142 26.2843
3145 1 7.12855 4.62251 26.4379
1921 1 1.08697 6.16511 27.9161
1925 1 7.12511 7.71045 26.438
3121 1 1.08173 -0.00400012 27.9171
2739 1 1.91781 10.7982 1.36943
2741 1 1.08198 9.25048 4.3957
2748 2 0.0488535 10.7938 4.33476
2749 2 2.10123 9.25225 2.79579
2750 2 3.9447 10.7987 1.59233
2752 2 1.97874 9.25431 0.147627
2740 1 4.12605 9.2543 3.01991
2745 1 7.1248 10.7989 2.92275
2747 2 5.99596 9.25474 0.0397672
2751 2 4.06649 10.7978 4.24041
2754 2 6.09013 9.25402 2.87412
2758 2 8.01683 10.7992 4.55341
2744 1 10.1604 10.8013 1.54182
2746 1 10.9911 9.25493 4.39041
2753 2 12.0237 10.8013 4.43313
2755 2 8.13772 10.7997 1.32018
2756 2 9.98351 9.2545 0.113194
2757 2 10.1039 9.25453 2.75921
3679 1 1.91331 13.8838 1.37183
3681 1 1.0748 12.3412 4.40076
3688 2 0.0358792 13.8818 4.3425
3689 2 2.09629 12.3415 2.79931
3690 2 3.94169 13.8862 1.59374
3692 2 1.97541 12.3417 0.148171
3680 1 4.12209 12.3422 3.02187
3685 1 7.12236 13.8861 2.92434
3687 2 5.99457 12.3429 0.0411776
3691 2 4.06563 13.885 4.24288
3694 2 6.08713 12.342 2.87513
3698 2 8.01464 13.8866 4.55505
3684 1 10.1613 13.8919 1.54514
3686 1 10.9913 12.347 4.39296
3693 2 12.0278 13.8914 4.44321
3695 2 8.13781 13.8897 1.3229
3696 2 9.98261 12.3449 0.114942
3697 2 10.1027 12.3463 2.7624
480 2 2.08786 9.25395 8.67944
481 2 1.97468 9.25524 6.02554
483 1 1.90648 10.8001 7.25042
492 2 3.93492 10.799 7.47251
490 2 5.99185 9.25507 5.91895
491 1 4.11347 9.2555 8.90382
500 2 6.07961 9.25461 8.75155
502 1 7.11529 10.7986 8.80018
2742 1 4.95225 10.7977 5.87345
2743 1 7.95548 9.25483 5.77423
503 2 8.13421 10.7994 7.20075
510 2 9.98594 9.25485 5.99719
511 2 10.1008 9.25409 8.64088
513 1 10.1625 10.7992 7.4218
1359 1 1.89529 13.8844 7.25552
1369 2 2.09045 12.3451 8.68007
1370 2 3.93224 13.8879 7.47489
1372 2 1.96911 12.3462 6.02925
1360 1 4.11534 12.3439 8.90045
1365 1 7.11678 13.8868 8.80135
1367 2 5.98989 12.3418 5.92205
1374 2 6.08055 12.3435 8.75191
3682 1 4.95011 13.8846 5.87674
3683 1 7.95383 12.3428 5.77525
1364 1 10.1646 13.8873 7.42523
1375 2 8.13674 13.8886 7.20324
1376 2 9.98388 12.344 5.99815
1377 2 10.1042 12.342 8.6435
3701 1 1.06841 15.4253 4.40199
3712 2 1.97127 15.4277 0.150448
3700 1 4.11914 15.4276 3.02348
3714 2 6.08465 15.4291 2.8762
475 1 1.92131 7.70894 7.24938
1392 2 1.95915 15.4262 6.03364
2722 1 4.95686 7.71024 5.87092
2738 2 8.019 7.71092 4.55298
3703 1 7.95502 15.4295 5.77631
1397 2 10.1116 15.4279 8.64927
2719 1 1.92239 7.70965 1.36759
2725 1 7.12757 7.71067 2.92198
505 1 10.1641 7.70935 7.42207
2731 2 4.06888 7.70958 4.23919
3709 2 2.0919 15.4274 2.80219
1387 2 5.99058 15.4278 5.92531
486 2 3.9417 7.70987 7.47168
2730 2 3.94771 7.70948 1.59119
497 2 8.13507 7.70999 7.2008
495 1 7.11543 7.71034 8.80031
482 1 1.03743 9.2428 10.2725
484 2 0.033483 10.8005 10.2057
899 1 1.89345 10.7874 13.1312
909 2 2.08964 9.25074 14.5605
910 2 3.92999 10.7934 13.3511
912 2 1.94864 9.24878 11.9022
493 1 4.94862 10.7975 11.7536
494 2 4.06363 10.8 10.1207
501 1 7.94782 9.25352 11.6506
504 2 8.00624 10.7979 10.4308
905 1 7.12005 10.798 14.6868
907 2 5.98631 9.25344 11.802
914 2 6.08299 9.25426 14.6344
512 1 10.981 9.25349 10.2728
514 2 12.0282 10.7939 10.3174
904 1 10.1507 10.8013 13.3043
915 2 8.13088 10.7996 13.0815
916 2 9.97215 9.25321 11.872
917 2 10.095 9.25234 14.5183
959 1 1.90253 13.8737 13.1325
969 2 2.09081 12.3388 14.5618
970 2 3.93489 13.8826 13.3524
972 2 1.95884 12.3323 11.9104
1361 1 1.0662 12.3361 10.2785
1368 2 0.0313859 13.8771 10.2257
965 1 7.12198 13.8851 14.6865
967 2 5.98831 12.3407 11.8025
974 2 6.08389 12.3418 14.6347
1362 1 4.95415 13.8859 11.753
1363 1 7.95079 12.3419 11.6508
1371 2 4.06339 13.8872 10.1228
1378 2 8.00772 13.886 10.4318
964 1 10.1578 13.8936 13.3054
975 2 8.13451 13.8917 13.0825
976 2 9.97536 12.3434 11.8719
977 2 10.1005 12.3488 14.5205
1366 1 10.9912 12.3395 10.2742
1373 2 12.0463 13.873 10.3196
562 2 1.96615 9.25669 17.7916
564 1 1.90764 10.8017 19.0102
573 2 3.93915 10.8012 19.2298
901 1 1.06961 9.2522 16.1607
908 2 0.0452443 10.8002 16.1215
571 2 5.99672 9.2561 17.6812
900 1 4.11557 9.25307 14.7774
902 1 4.95794 10.7997 17.6311
903 1 7.96169 9.257 17.5377
911 2 4.06587 10.7961 16.0011
918 2 8.01875 10.7996 16.3146
584 2 8.14939 10.8044 18.9643
591 2 9.99083 9.25631 17.7586
594 1 10.1842 10.8075 19.1846
906 1 10.9868 9.25288 16.1476
913 2 12.0183 10.7959 16.1748
159 1 1.89972 13.8867 19.0132
170 2 3.93717 13.8902 19.2315
172 2 1.96706 12.3469 17.7926
961 1 1.07148 12.3438 16.1634
968 2 0.030872 13.8821 16.1068
167 2 5.99757 12.3434 17.6835
960 1 4.1168 12.3367 14.78
962 1 4.95844 13.8872 17.6348
963 1 7.96385 12.3431 17.5387
971 2 4.06858 13.8806 16.0029
978 2 8.01616 13.8867 16.3163
164 1 10.1899 13.8879 19.1934
175 2 8.15282 13.8892 18.9676
176 2 9.99229 12.3463 17.7568
966 1 10.9985 12.348 16.15
973 2 12.0341 13.8914 16.1767
989 2 2.08974 15.4248 14.5621
992 2 1.95941 15.418 11.9092
1381 1 1.06088 15.4182 10.2795
994 2 6.08441 15.4293 14.6308
1383 1 7.95653 15.4285 11.6507
891 2 4.06568 7.7104 15.9993
882 1 4.95852 7.71209 17.6284
1386 1 11.0089 15.4157 10.2767
192 2 1.95772 15.4277 17.7896
981 1 1.06126 15.4261 16.1599
980 1 4.11777 15.4169 14.7813
983 1 7.96435 15.4248 17.5418
567 2 3.94295 7.71244 19.2295
586 1 10.1724 7.7139 19.1834
879 1 1.89421 7.70838 13.1241
488 1 4.9491 7.70904 11.7532
489 2 4.06619 7.70925 10.1196
509 2 12.0293 7.71398 10.32
556 1 1.91712 7.71031 19.0068
987 2 5.99317 15.4301 11.8026
187 2 5.99813 15.4322 17.6871
890 2 3.93004 7.7093 13.3497
499 2 8.00693 7.70947 10.4311
578 2 8.14312 7.71234 18.9625
561 2 2.09725 9.25694 20.4391
563 1 1.07913 9.25617 22.0381
565 2 0.0425205 10.7978 21.9924
1952 2 1.97435 9.25496 23.6675
572 1 4.12271 9.25721 20.6575
574 1 4.96151 10.7992 23.5083
575 2 4.07053 10.8002 21.8783
581 2 6.08822 9.25689 20.5103
582 1 7.95985 9.25533 23.4094
583 1 7.12555 10.8009 20.5591
585 2 8.01624 10.7988 22.1896
1947 2 5.99742 9.25477 23.5585
592 2 10.1195 9.25956 20.4019
593 1 10.9965 9.25526 22.0363
595 2 12.0447 10.7883 22.1025
1956 2 9.98337 9.25168 23.6351
161 1 1.0749 12.342 22.0376
168 2 0.0410847 13.8847 21.992
169 2 2.09568 12.3449 20.4403
2812 2 1.97279 12.3424 23.6663
160 1 4.12247 12.3443 20.6576
162 1 4.9639 13.8854 23.5092
163 1 7.9659 12.3436 23.4062
165 1 7.12584 13.8881 20.5604
171 2 4.07056 13.8864 21.8796
174 2 6.08808 12.3448 20.5094
178 2 8.01456 13.8884 22.1913
2807 2 6.00036 12.3418 23.5589
166 1 11.043 12.3543 22.0418
2817 2 10.1072 12.3433 26.287
177 2 10.1354 12.3464 20.4124
2816 2 9.99379 12.3435 23.6322
1939 1 1.91809 10.7994 24.887
1941 1 1.08303 9.25442 27.9163
1948 2 0.0452247 10.797 27.8675
1949 2 2.10038 9.25372 26.3161
1950 2 3.94513 10.7989 25.1084
1940 1 4.1257 9.25471 26.537
1942 1 4.95892 10.7984 29.3885
1943 1 7.95842 9.25472 29.2871
1945 1 7.12457 10.7996 26.4383
1951 2 4.0706 10.7982 27.7572
1954 2 6.08959 9.25482 26.3888
1958 2 8.01443 10.7995 28.069
1944 1 10.1629 10.7993 25.0645
1946 1 11.0002 9.2545 27.9111
1953 2 12.0377 10.7975 27.9684
1955 2 8.14161 10.8005 24.8385
1957 2 10.1049 9.25232 26.2844
2799 1 1.91691 13.8854 24.8868
2801 1 1.08004 12.3412 27.9158
2808 2 0.043137 13.8842 27.867
2809 2 2.10047 12.3417 26.3172
2810 2 3.94404 13.8866 25.1084
2800 1 4.12492 12.3428 26.5376
2802 1 4.95737 13.8863 29.3903
2803 1 7.95729 12.3441 29.2884
2805 1 7.12373 13.8878 26.4397
2811 2 4.06951 13.8861 27.7585
2814 2 6.08847 12.3435 26.3899
2818 2 8.01365 13.8886 28.0706
2804 1 10.1619 13.8893 25.0636
2806 1 11.004 12.3441 27.9147
2813 2 12.0476 13.883 27.973
2815 2 8.14185 13.8887 24.8403
181 1 1.07242 15.4284 22.038
180 1 4.12115 15.4282 20.6583
173 2 12.0916 13.8834 22.1015
186 1 11.0513 15.4185 22.0455
197 2 10.1377 15.4278 20.4168
2821 1 1.07812 15.4281 27.9168
2820 1 4.12333 15.4294 26.5386
1931 2 4.0713 7.70988 27.7566
2826 1 11.0113 15.4271 27.918
1930 2 3.94605 7.71057 25.1087
569 1 4.96103 7.71081 23.5082
570 2 4.07104 7.71184 21.8779
1919 1 1.92024 7.71044 24.8868
2832 2 1.97016 15.4291 23.6667
1922 1 4.96132 7.70997 29.3871
576 1 7.12325 7.71189 20.5608
590 2 12.0407 7.71403 22.0881
2641 1 1.07113 18.5123 4.40205
2649 2 2.09123 18.5139 2.80328
2652 2 1.96818 18.5138 0.154166
3699 1 1.91078 16.9688 1.37376
837 2 10.1168 21.599 8.58998
3708 2 0.0349155 16.9698 4.34855
835 2 8.14996 23.1414 7.1873
3710 2 3.93862 16.9716 1.59558
836 2 9.99491 21.6001 5.96747
2640 1 4.11815 18.513 3.02505
2647 2 5.99542 18.5152 0.0463557
2654 2 6.08266 18.5137 2.87505
815 2 8.14395 20.0574 7.19333
3705 1 7.12211 16.9716 2.92364
3707 2 5.9945 15.4301 0.0436485
3711 2 4.0623 16.9703 4.2449
804 1 10.1774 20.0445 7.38576
3718 2 8.01289 16.9717 4.55521
2646 1 11.0155 18.5192 4.39275
2656 2 9.99054 18.5186 0.118685
2657 2 10.1181 18.521 2.76735
3704 1 10.1691 16.9771 1.54614
3706 1 10.998 15.4374 4.39758
3713 2 12.0461 16.9744 4.45115
3715 2 8.14164 16.977 1.32519
2663 1 7.95405 21.5979 5.75949
3717 2 10.1075 15.4361 2.76715
2639 1 1.91146 20.0561 1.37585
2648 2 0.0393716 20.0588 4.35304
2650 2 3.93845 20.0574 1.59828
2661 1 1.07741 21.6005 4.40603
2669 2 2.0937 21.6014 2.80592
2672 2 1.96866 21.6016 0.158107
2645 1 7.1209 20.0557 2.91807
2651 2 4.06268 20.056 4.24694
2658 2 8.00934 20.0538 4.54947
2660 1 4.11944 21.5999 3.0275
2667 2 5.9977 21.6002 0.0474082
2674 2 6.0834 21.5994 2.87372
2644 1 10.1775 20.0586 1.54171
2653 2 12.0612 20.0577 4.4542
2655 2 8.14574 20.0609 1.32479
2666 1 11.0277 21.6013 4.3779
2676 2 9.99625 21.6012 0.115607
2677 2 10.1272 21.6031 2.75839
809 2 2.08402 18.5119 8.68165
812 2 1.95755 18.5112 6.0357
1379 1 1.8961 16.9666 7.25537
1389 2 2.08677 15.4282 8.68356
1390 2 3.93099 16.9724 7.47539
2642 1 4.95162 20.0548 5.87784
800 1 4.11597 18.5157 8.90001
807 2 5.98957 18.5117 5.9277
814 2 6.08631 18.5191 8.75925
834 2 6.09744 21.6029 8.77275
1385 1 7.11971 16.9731 8.7998
824 1 10.1833 23.1419 7.36137
827 2 5.99143 21.5972 5.93024
2643 1 7.95346 18.5134 5.77155
3702 1 4.94952 16.969 5.87683
820 1 4.12609 21.6045 8.91203
816 2 9.99059 18.5179 5.99042
817 2 10.1247 18.5224 8.64437
1384 1 10.1703 16.97 7.4286
1395 2 8.14286 16.9767 7.20409
1396 2 9.98397 15.4337 5.99935
805 1 7.13191 20.0574 8.79534
799 1 1.90601 20.0547 7.25587
810 2 3.93578 20.0574 7.47947
829 2 2.0923 21.6003 8.68915
832 2 1.96637 21.5997 6.03886
2659 1 1.91233 23.1444 1.37826
2678 2 8.01086 23.1411 4.54563
2664 1 10.1822 23.1428 1.53653
819 1 1.90883 23.1409 7.26114
2662 1 4.95563 23.1416 5.87948
2670 2 3.94063 23.1438 1.60059
2665 1 7.1223 23.1417 2.91485
2671 2 4.06564 23.1429 4.2492
2673 2 12.0685 23.1423 4.45689
830 2 3.94219 23.141 7.48501
825 1 7.146 23.14 8.79412
3716 2 9.98562 15.4327 0.117296
1380 1 4.11492 15.43 8.90169
1394 2 6.08148 15.4314 8.75363
2002 1 4.95799 20.0577 8.14333e-04
719 2 2.07977 18.5071 14.5506
720 2 1.94225 18.493 11.8998
801 1 1.04875 18.4985 10.2683
979 1 1.89297 16.9528 13.1316
1156 2 9.98246 21.6217 17.7643
990 2 3.9351 16.9711 13.3526
1135 2 8.14032 20.0549 19.0084
1124 1 10.2 20.0452 19.2147
1388 2 0.0171729 16.955 10.2203
728 2 6.00329 18.5142 11.8108
739 2 6.09483 18.5302 14.6331
803 1 7.96308 18.509 11.6415
985 1 7.11885 16.9733 14.6815
1144 1 10.2032 23.1384 19.2044
758 2 12.1028 23.1431 16.2126
1382 1 4.95489 16.9717 11.7535
756 1 11.0931 21.587 16.2202
1391 2 4.06628 16.976 10.123
1398 2 8.01523 16.9709 10.4294
750 2 9.9907 18.5256 11.8734
751 2 10.0955 18.5428 14.5304
806 1 11.0185 18.4932 10.2734
984 1 10.1626 16.9786 13.31
995 2 8.14096 16.9894 13.0822
753 2 12.0758 20.0431 16.1989
1147 2 5.9701 21.6714 17.597
1139 1 1.85257 23.1419 19.0694
1393 2 12.0548 16.9554 10.3304
718 1 1.86888 20.0278 13.1032
723 2 2.07765 21.6127 14.5794
724 2 1.94363 21.5941 11.9174
726 1 1.87751 23.1397 13.1243
729 2 3.91024 20.0327 13.3192
735 2 3.931 23.1406 13.3723
808 2 0.0242916 20.0497 10.2306
821 1 1.05701 21.5938 10.2742
733 2 6.0007 21.6009 11.8398
738 1 7.14134 20.0695 14.6984
743 2 6.0274 21.5629 14.6168
802 1 4.96974 20.054 11.7404
811 2 4.06779 20.06 10.1241
818 2 8.02951 20.0571 10.433
823 1 7.93761 21.5848 11.6405
740 2 8.16609 20.1183 13.0979
745 2 8.35823 23.1426 12.9848
746 1 8.82595 23.1463 14.7689
749 1 10.1772 20.0469 13.2843
754 2 10.0736 21.5198 11.7736
755 2 10.0576 21.6838 14.6174
747 2 7.91772 23.1398 16.3625
813 2 12.0933 20.0171 10.3347
826 1 11.0895 21.5427 10.136
179 1 1.89959 16.9684 19.0109
190 2 3.93446 16.9819 19.2289
744 1 7.95871 21.532 17.6898
721 1 1.07228 18.5117 16.1604
742 2 7.98266 20.0953 16.355
988 2 0.032065 16.972 16.1087
1132 2 1.9669 18.5173 17.7918
822 1 4.95991 23.1414 11.7794
730 1 4.11612 18.484 14.7794
741 1 7.95948 18.4982 17.5391
737 2 4.2846 23.1406 15.9663
982 1 4.96088 16.9776 17.6387
734 1 4.04588 21.4999 14.6894
991 2 4.07093 16.961 16.0054
998 2 8.01382 16.9689 16.3135
1127 2 5.98902 18.535 17.6807
184 1 10.1922 16.9626 19.1919
195 2 8.15078 16.9777 18.9681
732 2 4.0127 20.0351 16.0049
752 1 11.0031 18.5186 16.1578
731 1 4.94727 20.0793 17.617
993 2 12.0371 16.9839 16.1881
1136 2 9.98097 18.5328 17.7603
722 2 0.0386903 20.0576 16.1197
725 1 1.05582 21.5986 16.1893
1152 2 2.00679 21.6297 17.7963
1119 1 1.91359 20.0599 19.0144
1130 2 3.94264 20.0767 19.2327
831 2 4.07699 23.1411 10.142
838 2 8.03226 23.1405 10.442
736 1 4.78091 23.1398 17.8127
757 1 10.4535 23.1391 12.6818
833 2 12.035 23.1409 10.3792
1150 2 3.87603 23.1417 19.3558
1155 2 8.1279 23.14 18.9742
996 2 9.9817 15.4323 11.8729
997 2 10.103 15.4401 14.5268
196 2 9.99105 15.4351 17.758
986 1 11.0073 15.4371 16.155
2037 2 10.1278 21.6024 26.292
188 2 0.037583 16.9709 21.9892
189 2 2.09299 15.4298 20.439
1121 1 1.07101 18.5129 22.0425
1129 2 2.09098 18.5212 20.4417
2012 2 1.9658 18.5169 23.6721
2005 1 7.1236 20.0594 26.4492
2026 1 11.0241 21.5994 27.9196
182 1 4.95747 16.9694 23.5102
2015 2 8.14719 20.0631 24.8536
185 1 7.12556 16.9743 20.5639
191 2 4.06387 16.9697 21.8804
194 2 6.08717 15.4319 20.5091
198 2 8.01443 16.979 22.1946
1120 1 4.11476 18.5092 20.6565
1123 1 7.96324 18.5149 23.4233
1134 2 6.07874 18.514 20.506
2007 2 5.99781 18.5122 23.5621
2827 2 5.99999 15.4299 23.5597
2013 2 12.0588 20.0553 27.9749
193 2 12.0562 16.9799 22.1119
2004 1 10.1791 20.0594 25.0746
1126 1 11.0172 18.5133 22.0506
1137 2 10.1297 18.5083 20.4141
2016 2 9.98907 18.5234 23.6428
2836 2 9.99552 15.4332 23.6344
1128 2 0.0291691 20.0525 21.9947
1141 1 1.0561 21.5961 22.0635
1149 2 2.07521 21.5961 20.4656
2032 2 1.9636 21.6008 23.6826
1122 1 4.95749 20.051 23.5322
1125 1 7.09633 20.0596 20.6027
1131 2 4.0665 20.0433 21.8977
1138 2 8.00942 20.0656 22.2087
1140 1 4.09971 21.587 20.7211
1143 1 7.96443 21.6009 23.4374
1154 2 6.06639 21.6069 20.4709
2027 2 5.9947 21.5965 23.5603
1133 2 12.0564 20.0558 22.0922
1146 1 11.0235 21.5984 22.0537
1157 2 10.1262 21.5994 20.4155
2036 2 9.99478 21.6033 23.6441
2001 1 1.07525 18.5144 27.9216
2009 2 2.09382 18.5158 26.3225
2819 1 1.91276 16.9704 24.8889
2034 2 6.08366 21.602 26.391
2828 2 0.0403584 16.9707 27.87
2829 2 2.0982 15.4294 26.3182
2830 2 3.94033 16.9737 25.1106
2000 1 4.12084 18.5144 26.5445
2003 1 7.96072 18.5165 29.295
2014 2 6.08574 18.5172 26.3911
2023 1 7.96415 21.6007 29.2958
2822 1 4.95636 16.9725 29.3932
2020 1 4.11915 21.6011 26.5551
2825 1 7.12458 16.9742 26.4428
2831 2 4.06716 16.9718 27.7617
2834 2 6.08733 15.4315 26.391
2838 2 8.01421 16.9758 28.0736
2006 1 11.0156 18.5144 27.9195
2017 2 10.1157 18.5193 26.294
2824 1 10.1716 16.9751 25.0702
2018 2 8.01546 20.0599 28.0766
2833 2 12.0491 16.9703 27.9789
2835 2 8.14594 16.9752 24.8449
2011 2 4.06618 20.0568 27.7679
1999 1 1.9074 20.055 24.9009
2008 2 0.0412897 20.0595 27.8728
2010 2 3.9369 20.0582 25.1221
2021 1 1.07575 21.6026 27.9265
2029 2 2.09341 21.602 26.3284
2837 2 10.1103 15.4314 26.2917
1145 1 7.11341 23.1408 20.5938
1151 2 4.06171 23.1422 21.9211
1158 2 8.01069 23.1414 22.2083
1153 2 12.0669 23.1377 22.09
2038 2 8.01868 23.1427 28.0759
183 1 7.967 15.4313 23.4088
2823 1 7.95843 15.4318 29.2914
1439 1 1.91279 26.2301 1.37635
1441 1 1.07866 24.6853 4.40646
1448 2 0.0397584 26.2273 4.35603
1449 2 2.09517 24.6868 2.80623
1450 2 3.942 26.2282 1.59767
1452 2 1.96935 24.6871 0.157524
3237 2 10.1323 27.7617 8.64594
2668 2 0.0404971 23.1437 4.35604
3056 2 9.99466 30.8491 6.00042
1440 1 4.12184 24.6856 3.02699
1445 1 7.12677 26.2274 2.91795
1447 2 6.00068 24.6856 0.046862
1451 2 4.06758 26.2283 4.24657
1454 2 6.08624 24.6857 2.87331
1458 2 8.01555 26.2283 4.54943
3049 2 2.09808 30.8467 8.68169
3937 2 10.1217 30.8492 2.76872
3236 2 9.99902 27.7657 5.99132
1444 1 10.1837 26.2275 1.54151
1446 1 11.0302 24.6847 4.37801
1453 2 12.0662 26.227 4.4539
1455 2 8.15216 26.2255 1.32439
1456 2 9.99963 24.6835 0.115353
1457 2 10.1306 24.6834 2.758
3235 2 8.15225 29.3053 7.20529
3936 2 9.99801 30.851 0.117306
2675 2 8.14885 23.1431 1.32289
1459 1 1.91417 29.3129 1.37367
1461 1 1.07831 27.7689 4.40284
1468 2 0.0389972 29.3106 4.35318
1469 2 2.09613 27.7704 2.80316
1470 2 3.94407 29.3106 1.59426
1472 2 1.97073 27.7706 0.153626
1460 1 4.12459 27.7699 3.02334
1465 1 7.13191 29.3102 2.92346
1467 2 6.0026 27.7691 0.0452473
1471 2 4.06968 29.3114 4.24374
1474 2 6.08973 27.7699 2.87417
1478 2 8.02218 29.3096 4.55542
1464 1 10.1818 29.3092 1.54667
1466 1 11.0239 27.7673 4.39343
1473 2 12.058 29.3104 4.45216
1475 2 8.15243 29.3078 1.32532
1476 2 10.0008 27.7671 0.118259
1477 2 10.1283 27.7657 2.76691
3224 1 10.18 29.3139 7.42982
3220 1 4.12585 27.7628 8.90093
3199 1 1.91189 26.2254 7.25676
3209 2 2.09448 24.6818 8.68972
3210 2 3.94262 26.2221 7.48023
3212 2 1.96858 24.6824 6.03901
1463 1 7.96134 27.7686 5.77226
1442 1 4.95654 26.2274 5.87747
1443 1 7.95698 24.6844 5.7596
3234 2 6.09582 27.7618 8.76216
3200 1 4.12957 24.6767 8.91226
3205 1 7.13943 26.2226 8.79752
3207 2 5.99452 24.6842 5.93006
3214 2 6.10129 24.6793 8.77383
3227 2 5.99737 27.7687 5.92764
3225 1 7.13144 29.3065 8.80276
3204 1 10.183 26.2396 7.38668
3215 2 8.14984 26.2256 7.1941
3216 2 9.99782 24.683 5.96783
3217 2 10.1196 24.6851 8.59042
3219 1 1.91273 29.3089 7.25342
3229 2 2.09364 27.7657 8.6818
3230 2 3.94333 29.3052 7.47555
3232 2 1.97018 27.7663 6.03372
1462 1 4.95896 29.3115 5.8746
3921 1 1.08008 30.8512 4.40044
3927 2 6.00263 30.8518 0.0426672
3926 1 11.0128 30.8487 4.40009
3052 2 1.97385 30.8483 6.03033
3040 1 4.12635 30.8469 8.90288
3054 2 6.09208 30.8473 8.75674
2022 1 4.96093 23.1437 0.00430337
3282 1 4.962 26.2284 4.74409e-04
828 2 0.0233511 23.1395 10.234
2319 1 1.87277 26.2491 13.1042
2329 2 2.07896 24.6717 14.5794
2330 2 3.91537 26.2462 13.3198
2332 2 1.94559 24.6844 11.9171
3201 1 1.05804 24.6839 10.2742
3208 2 0.0244168 26.2291 10.2323
2353 2 12.0564 29.3095 16.2119
727 2 0.029487 23.1438 16.1297
3852 2 1.97254 30.8462 17.7871
2325 1 7.14455 26.2101 14.7004
2327 2 6.00493 24.6796 11.8406
2334 2 6.03132 24.716 14.6177
3202 1 4.97563 26.2271 11.7418
3203 1 7.94233 24.6965 11.6419
3211 2 4.0739 26.2207 10.1254
3218 2 8.03767 26.2243 10.4354
2177 2 10.1163 30.845 14.5342
2324 1 10.1835 26.2378 13.2909
2335 2 8.17239 26.1662 13.1015
2336 2 10.0774 24.7618 11.7767
2337 2 10.0582 24.6076 14.6228
3206 1 11.0905 24.7398 10.1378
3213 2 12.0964 26.2642 10.3362
2339 1 1.90146 29.3213 13.1297
2349 2 2.08545 27.7723 14.5507
2350 2 3.94221 29.3064 13.3525
2352 2 1.95117 27.7819 11.8994
3221 1 1.05862 27.7743 10.2678
3228 2 0.0245606 29.3176 10.2228
2345 1 7.12456 29.306 14.6822
2347 2 6.01179 27.7656 11.8131
2354 2 6.09947 27.7498 14.6349
3222 1 4.96327 29.3074 11.7545
3223 1 7.97218 27.7721 11.6459
3231 2 4.07467 29.3025 10.1241
3238 2 8.027 29.3099 10.4333
2344 1 10.175 29.3067 13.3154
2355 2 8.15073 29.2927 13.0865
2356 2 10.0005 27.7582 11.8797
2357 2 10.112 27.746 14.5371
3226 1 11.0239 27.789 10.2765
3233 2 12.0604 29.3261 10.3373
2346 1 11.0173 27.7726 16.1659
1555 2 8.14948 29.2998 18.9687
1519 1 1.9157 26.2209 19.0151
1530 2 3.94627 26.2034 19.2344
1532 2 2.00718 24.6538 17.7957
2321 1 1.05527 24.6883 16.1888
2328 2 0.0347556 26.2284 16.1173
1527 2 5.97162 24.6075 17.5987
2320 1 4.04836 24.7796 14.69
2322 1 4.94979 26.1994 17.6184
2323 1 7.95967 24.7466 17.6922
2331 2 4.01703 26.2438 16.0055
2338 2 7.98637 26.1832 16.3567
1556 2 9.98612 27.7493 17.7632
1544 1 10.1826 29.3121 19.1946
1524 1 10.2026 26.2315 19.2182
1535 2 8.1443 26.2253 19.0101
1536 2 9.98497 24.6592 17.7672
2326 1 11.0951 24.7007 16.2235
2333 2 12.0827 26.2429 16.2063
1539 1 1.91209 29.3067 19.0097
1550 2 3.94321 29.2955 19.2308
1552 2 1.97679 27.7601 17.7892
2341 1 1.07769 27.7681 16.1601
2348 2 0.035186 29.3075 16.1092
1547 2 5.99288 27.7429 17.6812
2340 1 4.12119 27.7938 14.7801
2342 1 4.96592 29.3006 17.6381
2343 1 7.96275 27.7799 17.5383
2351 2 4.07518 29.3174 16.0053
2358 2 8.0183 29.3106 16.3148
2167 2 6.00217 30.8484 11.8049
2174 2 6.09033 30.8499 14.6321
2176 2 9.9924 30.8502 11.8809
2161 1 1.07526 30.8476 16.1584
3847 2 6.00162 30.8464 17.6861
2166 1 11.0141 30.8503 16.1633
3856 2 9.99367 30.8473 17.7626
748 1 6.20627 23.1387 15.5408
1148 2 0.026341 23.1423 21.9919
1521 1 1.05503 24.6886 22.063
1528 2 0.0254078 26.2323 21.9929
1529 2 2.07554 24.6886 20.4657
3292 2 1.96276 24.686 23.6821
3317 2 10.1341 27.7693 26.2902
3134 2 6.09302 30.8511 26.3905
3129 2 2.09895 30.852 26.3171
3136 2 10.0012 30.8515 23.6378
1520 1 4.10171 24.6961 20.7213
1522 1 4.96203 26.233 23.5333
1523 1 7.96831 24.6827 23.4377
1525 1 7.10168 26.222 20.6051
1531 2 4.06921 26.2387 21.8997
1534 2 6.06906 24.6764 20.4725
1538 2 8.01594 26.2176 22.2104
3287 2 5.99817 24.6872 23.5611
3854 2 6.09195 30.8483 20.514
1526 1 11.0292 24.6811 22.054
1533 2 12.0662 26.224 22.0892
1537 2 10.1302 24.6775 20.4172
3296 2 9.99986 24.6807 23.644
1541 1 1.07453 27.7678 22.0416
1548 2 0.03867 29.3108 21.9871
1549 2 2.09539 27.759 20.4417
3312 2 1.9673 27.7667 23.6717
1540 1 4.12007 27.7705 20.6586
1542 1 4.96229 29.3121 23.5122
1543 1 7.97177 27.7684 23.425
1545 1 7.12955 29.3064 20.5688
1551 2 4.06764 29.3101 21.8827
1554 2 6.08358 27.7669 20.5098
1558 2 8.02382 29.3049 22.1971
3307 2 6.00472 27.7707 23.5627
1546 1 11.0296 27.7694 22.05
1553 2 12.0653 29.3125 22.0937
1557 2 10.1324 27.769 20.4182
3316 2 10.0017 27.7642 23.6418
3315 2 8.15592 29.3084 24.8468
2028 2 0.0390457 23.1456 27.8723
2030 2 3.93708 23.1441 25.1318
3279 1 1.90749 26.2304 24.9011
3281 1 1.07534 24.6879 27.9264
3288 2 0.0380533 26.2301 27.8708
3289 2 2.09377 24.6877 26.3284
3290 2 3.93901 26.2277 25.1218
3313 2 12.0633 29.314 27.9708
3306 1 11.0264 27.7705 27.9204
2031 2 4.06617 23.1442 27.7734
3127 2 6.00484 30.8517 23.561
3280 1 4.12072 24.6865 26.5546
1142 1 4.95976 23.1427 23.5457
3283 1 7.96719 24.6849 29.2954
3285 1 7.12874 26.2261 26.449
3291 2 4.0688 26.2301 27.768
3294 2 6.08599 24.6855 26.391
3298 2 8.02235 26.2259 28.0757
3304 1 10.1862 29.3113 25.0691
2033 2 12.065 23.1409 27.9721
2035 2 8.14792 23.1434 24.8538
3284 1 10.1876 26.2266 25.0735
3286 1 11.0274 24.6844 27.9198
3293 2 12.0653 26.2273 27.9717