# LAMMPS data file written by OVITO Basic 3.7.11
3998 atoms
2 atom types
0.0 48.4282885418 xlo xhi
0.0 30.8572093325 ylo yhi
0.0 29.396923244 zlo zhi

Atoms  # atomic

3919 1 1.91768 1.53748 1.37146
3070 2 3.94362 4.62044 7.47211
3928 2 0.0430373 1.53598 4.34706
3075 2 8.14022 4.62176 7.20289
3930 2 3.94728 1.53532 1.59253
3932 2 1.97387 -0.00450769 0.150518
3941 1 1.08557 3.07624 4.39859
3949 2 2.10254 3.07692 2.79767
3952 2 1.97892 3.07836 0.148635
3920 1 4.12783 -0.00490942 3.02074
3925 1 7.13232 1.53678 2.92346
3059 1 1.91974 4.61924 7.2472
3931 2 4.07272 1.53633 4.24149
3934 2 6.09342 -0.0054505 2.87497
3938 2 8.02252 1.53659 4.55543
3940 1 4.12951 3.07849 3.01976
3947 2 6.00092 3.07925 0.04006
3954 2 6.09423 3.07909 2.87426
3924 1 10.1757 1.53344 1.54416
477 2 1.98173 6.16345 6.02326
3933 2 12.046 1.53605 4.45018
3935 2 8.14849 1.53422 1.32233
3064 1 10.1689 4.62165 7.42655
507 2 10.1067 6.16683 8.64446
3946 1 10.9996 3.07356 4.39659
3956 2 9.99342 3.07926 0.113658
3957 2 10.1129 3.07548 2.76382
506 2 9.98717 6.16643 5.99824
2721 1 1.0848 6.16353 4.39565
2728 2 0.049793 7.70578 4.33479
2729 2 2.10317 6.1636 2.79559
476 2 2.09239 6.16157 8.67833
2732 2 1.98094 6.16487 0.147996
3939 1 1.92172 4.62152 1.36922
3948 2 0.051191 4.61859 4.338
3950 2 3.94865 4.62082 1.59161
2720 1 4.12851 6.16538 3.01928
485 2 5.99477 6.16701 5.9192
2727 2 5.99823 6.16624 0.0390771
3942 1 4.95843 4.62303 5.87141
2734 2 6.0926 6.16587 2.87384
3065 1 7.12194 4.62242 8.8022
3945 1 7.13048 4.62304 2.92242
3951 2 4.07121 4.62165 4.23936
3958 2 8.02117 4.62304 4.55393
2723 1 7.95818 6.16667 5.77504
2726 1 10.9931 6.16314 4.39206
2733 2 12.0248 7.70912 4.43198
2735 2 8.13977 7.70903 1.31909
2736 2 9.98767 6.16578 0.112198
2737 2 10.1066 6.1634 2.76001
3944 1 10.1686 4.61901 1.54151
3953 2 12.0301 4.61922 4.44058
3955 2 8.14372 4.62041 1.3198
3039 1 1.91722 1.53375 7.2505
496 2 6.08274 6.16422 8.75226
3050 2 3.94566 1.53109 7.4736
3077 2 10.1135 3.08072 8.64978
3069 2 2.10139 3.07136 8.67735
3072 2 1.98266 3.07314 6.02555
3076 2 9.98833 3.07785 5.99985
3045 1 7.12767 1.53459 8.80427
3057 2 10.1205 -0.00278026 8.65228
487 1 4.11749 6.16414 8.90409
3060 1 4.12525 3.07584 8.90104
3067 2 5.99772 3.08039 5.92213
3074 2 6.089 3.07639 8.7539
3922 1 4.96101 1.53673 5.87324
3923 1 7.9657 -0.00571565 5.77697
3943 1 7.9612 3.07959 5.77641
3044 1 10.1742 1.53778 7.42849
3055 2 8.14583 1.53394 7.20541
2724 1 10.1633 7.70892 1.54044
3047 2 6.00084 -0.00565008 5.9248
3929 2 2.09856 -0.00510933 2.80055
2159 1 1.90993 1.54273 13.1306
2169 2 2.09637 -0.00575016 14.5592
2170 2 3.94189 1.53588 13.3518
2172 2 1.96671 -0.0010272 11.9087
2189 2 2.09645 3.07674 14.5584
2192 2 1.96624 3.08302 11.9102
3041 1 1.07318 -0.00428919 10.2774
3048 2 0.0389411 1.53673 10.2236
3061 1 1.08058 3.07622 10.2763
2165 1 7.12765 1.53715 14.686
2182 1 4.96052 4.62347 17.6292
883 1 7.96122 6.16854 17.536
2187 2 5.99553 3.07937 11.8036
2194 2 6.0883 3.07945 14.6354
3042 1 4.96204 1.53429 11.7533
3043 1 7.9661 -0.00526063 11.6557
3051 2 4.07144 1.53244 10.123
3058 2 8.01813 1.53564 10.4354
3063 1 7.95945 3.07937 11.654
2164 1 10.1713 1.53165 13.3083
2175 2 8.14405 1.53144 13.0854
2191 2 4.06684 4.62396 16.0002
3875 2 8.14542 4.62319 18.9642
2196 2 9.98627 3.07922 11.8765
2197 2 10.1101 3.07256 14.528
3046 1 11.015 0.00841501 10.2817
3053 2 12.0519 1.54885 10.3329
3066 1 11.0086 3.08867 10.2785
478 1 1.0446 6.17141 10.2716
479 2 0.00821097 7.70432 10.2066
3864 1 10.1746 4.6247 19.1882
889 2 2.09206 6.16365 14.5592
880 1 4.11752 6.16742 14.7769
892 2 1.95323 6.16721 11.9018
2179 1 1.89841 4.62947 13.1296
2190 2 3.93425 4.62453 13.3506
3068 2 0.042444 4.60953 10.2067
2193 2 12.0344 4.62046 16.2007
893 2 12.0258 7.7105 16.1899
498 1 7.95168 6.16568 11.652
566 2 5.99673 6.16831 17.6806
885 1 7.1199 7.71088 14.6858
887 2 5.98904 6.16615 11.8026
894 2 6.08418 6.16647 14.635
2185 1 7.12338 4.62427 14.6857
3062 1 4.95372 4.62113 11.7537
3071 2 4.0683 4.61865 10.1209
3078 2 8.01198 4.62244 10.4335
508 1 10.9934 6.16719 10.2754
886 1 10.9961 6.16327 16.1538
884 1 10.1527 7.7066 13.3026
895 2 8.13131 7.70746 13.0812
896 2 9.97861 6.16505 11.8743
897 2 10.1054 6.16178 14.5229
2184 1 10.1615 4.6167 13.3057
2195 2 8.13759 4.6201 13.0836
3073 2 12.0469 4.63291 10.3243
3870 2 3.9468 4.62108 19.2313
2168 2 0.0410191 1.5331 16.1101
2181 1 1.08696 3.07002 16.1628
3839 1 1.91864 1.53158 19.0102
3850 2 3.94777 1.52979 19.233
587 2 9.99031 6.16792 17.7593
3872 2 1.984 3.0717 17.7905
2160 1 4.12462 0.00313623 14.7803
2162 1 4.96337 1.53431 17.6324
2163 1 7.9664 -0.00175869 17.5403
2171 2 4.07111 1.53979 16.002
2178 2 8.01964 1.53662 16.317
2180 1 4.12241 3.08337 14.7781
2183 1 7.96365 3.08152 17.5375
3859 1 1.92143 4.61907 19.0079
3867 2 5.99901 3.07953 17.6824
2188 2 0.0541847 4.60917 16.1263
2173 2 12.0473 1.53621 16.2125
2186 1 11.0029 3.07499 16.1582
3844 1 10.1787 1.53875 19.192
3855 2 8.1492 1.53493 18.9676
888 2 0.0452323 7.70348 16.1302
3876 2 9.99123 3.07905 17.761
881 1 1.07625 6.15969 16.1612
558 2 1.97614 6.16344 17.7901
2198 2 8.01918 4.62427 16.315
898 2 8.01851 7.71233 16.314
1934 2 6.09054 6.16532 26.3892
3152 2 1.97684 3.07811 23.6672
3155 2 8.14727 4.62163 24.8398
3848 2 0.0438771 1.53755 21.987
3153 2 12.0541 4.62946 27.9606
3861 1 1.08454 3.07882 22.0371
3869 2 2.10337 3.07489 20.439
3144 1 10.175 4.62298 25.0625
3147 2 6.00345 3.0804 23.5598
1938 2 8.01579 7.71005 28.0681
3842 1 4.96616 1.53746 23.5115
1923 1 7.96135 6.16558 29.2868
3845 1 7.12868 1.53558 20.5658
3851 2 4.07336 1.53538 21.8818
1937 2 10.1155 6.16593 26.2823
3858 2 8.02379 1.53595 22.1939
3860 1 4.12782 3.07813 20.6608
3863 1 7.96907 3.07995 23.4124
3874 2 6.09158 3.0784 20.5138
1935 2 8.1415 7.70817 24.8385
3156 2 9.99857 3.08186 23.6345
1920 1 4.12722 6.16557 26.5373
3853 2 12.0614 1.54208 22.0911
3150 2 3.94751 4.62122 25.1094
3866 1 11.0232 3.08556 22.0379
3877 2 10.1239 3.08231 20.4107
557 2 2.10224 6.16418 20.4385
559 1 1.08651 6.1659 22.038
560 2 0.0507439 7.70803 21.9956
1932 2 1.97879 6.16539 23.668
3868 2 0.0493706 4.6224 21.9917
568 1 4.12548 6.16669 20.6593
1933 2 12.0435 7.71285 27.9608
1926 1 11.0075 6.16791 27.912
3148 2 0.0492284 4.62211 27.8675
577 2 6.08916 6.16656 20.5121
579 1 7.96324 6.16682 23.4107
580 2 8.01768 7.7111 22.1896
1927 2 5.99914 6.16758 23.5582
3862 1 4.96414 4.62293 23.5097
3865 1 7.12685 4.6233 20.5628
3871 2 4.07219 4.6223 21.8802
3878 2 8.02058 4.6234 22.1918
588 2 10.1169 6.17008 20.4059
589 1 11.0071 6.16769 22.0363
3139 1 1.92059 4.62149 24.8873
1936 2 9.99039 6.16655 23.6343
3873 2 12.0589 4.6326 22.0883
3119 1 1.91779 1.53638 24.8881
1924 1 10.1662 7.70991 25.0641
3128 2 0.0444045 1.53828 27.8671
3158 2 8.01934 4.62195 28.0681
3130 2 3.94668 1.53547 25.1096
3141 1 1.08535 3.07917 27.9162
3149 2 2.10175 3.07806 26.316
3120 1 4.12766 -0.00509816 26.538
3122 1 4.96327 1.53664 29.3893
3142 1 4.96281 4.62212 29.3877
3125 1 7.13205 1.53635 26.4396
3131 2 4.07199 1.53648 27.7589
3151 2 4.07172 4.62176 27.7576
3138 2 8.02274 1.53545 28.0702
3140 1 4.12853 3.07854 26.5375
3143 1 7.96517 3.07852 29.2885
3154 2 6.09268 3.07822 26.3898
3124 1 10.1824 1.53837 25.0649
1929 2 2.10221 6.16449 26.3156
3133 2 12.0595 1.54326 27.9675
3135 2 8.15337 1.53643 24.8423
1928 2 0.0509797 7.70805 27.8684
3146 1 11.0172 3.08395 27.9144
3157 2 10.1245 3.08144 26.2842
3145 1 7.12862 4.62248 26.4379
1921 1 1.08697 6.16507 27.9161
1925 1 7.12517 7.71041 26.438
3121 1 1.08175 -0.00404277 27.9171
2739 1 1.91783 10.7982 1.36945
2741 1 1.08196 9.25044 4.39571
2748 2 0.0488294 10.7938 4.33478
2749 2 2.10124 9.25223 2.79582
2750 2 3.94472 10.7986 1.59235
2752 2 1.97876 9.25428 0.147647
2740 1 4.12607 9.25428 3.01993
2745 1 7.12484 10.7989 2.92274
2747 2 5.99599 9.2547 0.0397678
2751 2 4.06654 10.7978 4.24044
2754 2 6.09015 9.254 2.87412
2758 2 8.01685 10.7992 4.5534
2744 1 10.1605 10.8013 1.5418
2746 1 10.9912 9.25493 4.39037
2753 2 12.0237 10.8013 4.4331
2755 2 8.13776 10.7996 1.32017
2756 2 9.98355 9.25446 0.113172
2757 2 10.1039 9.25451 2.75918
3679 1 1.91334 13.8837 1.37182
3681 1 1.07479 12.3411 4.40076
3688 2 0.0358717 13.8818 4.34249
3689 2 2.09631 12.3414 2.79932
3690 2 3.94172 13.8862 1.59374
3692 2 1.97545 12.3417 0.14818
3680 1 4.12212 12.3421 3.02188
3685 1 7.12239 13.8861 2.9243
3687 2 5.9946 12.3429 0.0411693
3691 2 4.0657 13.885 4.24287
3694 2 6.08715 12.342 2.87511
3698 2 8.01464 13.8866 4.55503
3684 1 10.1613 13.8918 1.54514
3686 1 10.9914 12.347 4.39295
3693 2 12.0278 13.8914 4.44318
3695 2 8.13784 13.8896 1.32287
3696 2 9.98262 12.3449 0.114941
3697 2 10.1027 12.3463 2.7624
480 2 2.08787 9.25391 8.67944
481 2 1.97465 9.25519 6.02555
483 1 1.90647 10.8 7.25042
492 2 3.93493 10.799 7.4725
490 2 5.99191 9.25506 5.91895
491 1 4.1135 9.25547 8.9038
500 2 6.07965 9.25459 8.75155
502 1 7.11535 10.7986 8.80017
2742 1 4.95232 10.7977 5.87347
2743 1 7.95554 9.25484 5.77422
503 2 8.13427 10.7994 7.20074
510 2 9.986 9.25486 5.99715
511 2 10.1009 9.25408 8.64084
513 1 10.1625 10.7992 7.42177
1359 1 1.89529 13.8844 7.2555
1369 2 2.09046 12.3451 8.68007
1370 2 3.93225 13.8879 7.47487
1372 2 1.9691 12.3461 6.02924
1360 1 4.11537 12.3438 8.90044
1365 1 7.11683 13.8867 8.80135
1367 2 5.98994 12.3418 5.92207
1374 2 6.08059 12.3435 8.7519
3682 1 4.95016 13.8846 5.87674
3683 1 7.95388 12.3428 5.77523
1364 1 10.1646 13.8873 7.42522
1375 2 8.13679 13.8886 7.20324
1376 2 9.98392 12.344 5.99813
1377 2 10.1043 12.342 8.64347
3701 1 1.06841 15.4253 4.40196
3712 2 1.97132 15.4276 0.150436
3700 1 4.11918 15.4275 3.02345
3714 2 6.0847 15.4291 2.87615
475 1 1.9213 7.7089 7.24939
1392 2 1.95913 15.4262 6.03363
2722 1 4.95691 7.71023 5.87091
2738 2 8.01904 7.71094 4.55295
3703 1 7.95506 15.4295 5.77629
1397 2 10.1116 15.428 8.64925
2719 1 1.9224 7.70963 1.36761
2725 1 7.12761 7.71065 2.92195
505 1 10.1642 7.70935 7.42203
2731 2 4.0689 7.70956 4.2392
3709 2 2.09193 15.4273 2.80217
1387 2 5.99063 15.4278 5.9253
486 2 3.94172 7.70984 7.47166
2730 2 3.94772 7.70945 1.5912
497 2 8.13513 7.70999 7.20077
495 1 7.11548 7.71033 8.80027
482 1 1.03742 9.24277 10.2725
484 2 0.0334782 10.8005 10.2057
899 1 1.89344 10.7874 13.1312
909 2 2.08965 9.25072 14.5605
910 2 3.92999 10.7934 13.3511
912 2 1.9486 9.24875 11.9022
493 1 4.94867 10.7975 11.7536
494 2 4.06367 10.7999 10.1207
501 1 7.94788 9.25349 11.6505
504 2 8.00633 10.7978 10.4308
905 1 7.1201 10.798 14.6867
907 2 5.98636 9.2534 11.802
914 2 6.08302 9.25428 14.6344
512 1 10.9811 9.25349 10.2728
514 2 12.0283 10.7939 10.3173
904 1 10.1508 10.8013 13.3043
915 2 8.13096 10.7996 13.0815
916 2 9.97224 9.2532 11.872
917 2 10.0951 9.25232 14.5183
959 1 1.90254 13.8737 13.1325
969 2 2.09082 12.3388 14.5618
970 2 3.93491 13.8825 13.3523
972 2 1.95881 12.3323 11.9104
1361 1 1.0662 12.336 10.2785
1368 2 0.0313871 13.877 10.2257
965 1 7.12202 13.8851 14.6865
967 2 5.98838 12.3407 11.8024
974 2 6.08392 12.3418 14.6347
1362 1 4.95421 13.8858 11.7529
1363 1 7.95087 12.3419 11.6507
1371 2 4.06342 13.8872 10.1228
1378 2 8.0078 13.886 10.4318
964 1 10.1579 13.8936 13.3054
975 2 8.1346 13.8917 13.0825
976 2 9.97545 12.3434 11.8719
977 2 10.1006 12.3487 14.5205
1366 1 10.9912 12.3395 10.2741
1373 2 12.0463 13.873 10.3196
562 2 1.96617 9.25668 17.7916
564 1 1.90764 10.8017 19.0102
573 2 3.93915 10.8013 19.2297
901 1 1.06963 9.25217 16.1607
908 2 0.0452587 10.8001 16.1215
571 2 5.99672 9.25611 17.6811
900 1 4.11559 9.25306 14.7774
902 1 4.95793 10.7997 17.6311
903 1 7.9617 9.25701 17.5377
911 2 4.06588 10.7961 16.0011
918 2 8.01879 10.7996 16.3146
584 2 8.14941 10.8044 18.9642
591 2 9.99086 9.25632 17.7585
594 1 10.1843 10.8075 19.1845
906 1 10.9869 9.25289 16.1476
913 2 12.0184 10.7959 16.1748
159 1 1.89974 13.8867 19.0132
170 2 3.93718 13.8902 19.2315
172 2 1.96706 12.3469 17.7926
961 1 1.07149 12.3438 16.1634
968 2 0.0308776 13.8821 16.1068
167 2 5.99758 12.3434 17.6835
960 1 4.11682 12.3367 14.7799
962 1 4.95845 13.8873 17.6347
963 1 7.96386 12.3431 17.5386
971 2 4.06862 13.8806 16.0029
978 2 8.01621 13.8867 16.3163
164 1 10.19 13.8879 19.1934
175 2 8.15285 13.8892 18.9676
176 2 9.99232 12.3463 17.7568
966 1 10.9986 12.348 16.15
973 2 12.0342 13.8914 16.1768
989 2 2.08976 15.4248 14.5621
992 2 1.9594 15.4179 11.9092
1381 1 1.06087 15.4182 10.2795
994 2 6.08444 15.4293 14.6308
1383 1 7.9566 15.4284 11.6507
891 2 4.06569 7.7104 15.9992
882 1 4.95851 7.71211 17.6284
1386 1 11.009 15.4157 10.2767
192 2 1.95773 15.4277 17.7895
981 1 1.06126 15.4261 16.1598
980 1 4.11779 15.4169 14.7813
983 1 7.9644 15.4248 17.5417
567 2 3.94297 7.71245 19.2295
586 1 10.1725 7.71392 19.1833
879 1 1.8942 7.70835 13.1241
488 1 4.94912 7.70901 11.7532
489 2 4.06623 7.70921 10.1195
509 2 12.0293 7.71398 10.3199
556 1 1.91715 7.7103 19.0068
987 2 5.99323 15.43 11.8026
187 2 5.99817 15.4322 17.6871
890 2 3.93004 7.70927 13.3496
499 2 8.00702 7.70945 10.4311
578 2 8.14313 7.71235 18.9625
561 2 2.09727 9.25693 20.4391
563 1 1.07915 9.25613 22.0382
565 2 0.0425489 10.7978 21.9925
1952 2 1.97436 9.25491 23.6675
572 1 4.12272 9.25722 20.6575
574 1 4.96152 10.7992 23.5083
575 2 4.07053 10.8002 21.8783
581 2 6.08823 9.25691 20.5103
582 1 7.95987 9.25533 23.4094
583 1 7.12557 10.8009 20.5591
585 2 8.01629 10.7988 22.1895
1947 2 5.99743 9.25477 23.5584
592 2 10.1195 9.25958 20.4018
593 1 10.9965 9.2553 22.0363
595 2 12.0447 10.7883 22.1025
1956 2 9.98341 9.25168 23.635
161 1 1.07493 12.3419 22.0377
168 2 0.041106 13.8846 21.992
169 2 2.09569 12.3449 20.4403
2812 2 1.97281 12.3424 23.6663
160 1 4.12248 12.3443 20.6575
162 1 4.96392 13.8854 23.5092
163 1 7.96594 12.3436 23.4061
165 1 7.12588 13.888 20.5604
171 2 4.07055 13.8864 21.8796
174 2 6.08809 12.3448 20.5094
178 2 8.01462 13.8884 22.1913
2807 2 6.00038 12.3418 23.5588
166 1 11.043 12.3544 22.0418
2817 2 10.1072 12.3433 26.287
177 2 10.1354 12.3465 20.4124
2816 2 9.99383 12.3436 23.6322
1939 1 1.91812 10.7994 24.887
1941 1 1.08304 9.25438 27.9163
1948 2 0.0452398 10.7969 27.8676
1949 2 2.10042 9.25368 26.3161
1950 2 3.94516 10.7989 25.1084
1940 1 4.12576 9.25466 26.537
1942 1 4.95895 10.7984 29.3885
1943 1 7.95846 9.25468 29.2871
1945 1 7.12462 10.7996 26.4383
1951 2 4.07067 10.7982 27.7572
1954 2 6.08964 9.25478 26.3887
1958 2 8.01448 10.7995 28.069
1944 1 10.1629 10.7993 25.0645
1946 1 11.0003 9.25447 27.9111
1953 2 12.0377 10.7975 27.9684
1955 2 8.14166 10.8004 24.8384
1957 2 10.1049 9.2523 26.2844
2799 1 1.91694 13.8854 24.8868
2801 1 1.08006 12.3412 27.9158
2808 2 0.043166 13.8842 27.867
2809 2 2.10051 12.3417 26.3172
2810 2 3.94407 13.8865 25.1084
2800 1 4.12496 12.3427 26.5376
2802 1 4.9574 13.8863 29.3903
2803 1 7.95732 12.3441 29.2884
2805 1 7.12376 13.8877 26.4397
2811 2 4.06958 13.886 27.7585
2814 2 6.08852 12.3435 26.3899
2818 2 8.01368 13.8886 28.0706
2804 1 10.1619 13.8893 25.0636
2806 1 11.004 12.344 27.9147
2813 2 12.0476 13.8829 27.9731
2815 2 8.14187 13.8887 24.8403
181 1 1.07244 15.4284 22.038
180 1 4.12119 15.4282 20.6583
173 2 12.0917 13.8834 22.1015
186 1 11.0514 15.4186 22.0455
197 2 10.1377 15.4278 20.4168
2821 1 1.07815 15.428 27.9168
2820 1 4.12336 15.4294 26.5386
1931 2 4.07136 7.70982 27.7566
2826 1 11.0113 15.4271 27.918
1930 2 3.94608 7.71052 25.1088
569 1 4.96105 7.71081 23.5082
570 2 4.07106 7.71185 21.8779
1919 1 1.92027 7.71039 24.8869
2832 2 1.97018 15.4291 23.6667
1922 1 4.96135 7.70993 29.3871
576 1 7.12326 7.71191 20.5607
590 2 12.0407 7.71407 22.088
2641 1 1.07114 18.5123 4.40202
2649 2 2.09126 18.5139 2.80327
2652 2 1.96821 18.5138 0.154146
3699 1 1.91081 16.9687 1.37374
837 2 10.1168 21.5991 8.58994
3708 2 0.0349165 16.9698 4.34854
835 2 8.14996 23.1414 7.18727
3710 2 3.93865 16.9716 1.59556
836 2 9.99491 21.6001 5.96743
2640 1 4.11819 18.513 3.02502
2647 2 5.99546 18.5152 0.0463417
2654 2 6.0827 18.5136 2.875
815 2 8.14397 20.0574 7.1933
3705 1 7.12215 16.9715 2.92359
3707 2 5.99453 15.4301 0.0436296
3711 2 4.06237 16.9703 4.24487
804 1 10.1774 20.0445 7.38571
3718 2 8.01291 16.9717 4.55517
2646 1 11.0155 18.5192 4.3927
2656 2 9.99055 18.5186 0.118631
2657 2 10.1181 18.521 2.76729
3704 1 10.1691 16.9771 1.54609
3706 1 10.998 15.4374 4.39756
3713 2 12.0461 16.9744 4.45112
3715 2 8.14166 16.977 1.32514
2663 1 7.95405 21.5979 5.75946
3717 2 10.1075 15.436 2.76713
2639 1 1.91148 20.0561 1.37583
2648 2 0.0393858 20.0588 4.35303
2650 2 3.93848 20.0574 1.59825
2661 1 1.07743 21.6004 4.40602
2669 2 2.09372 21.6013 2.80591
2672 2 1.96866 21.6016 0.158092
2645 1 7.12092 20.0557 2.91802
2651 2 4.06272 20.056 4.24692
2658 2 8.00936 20.0538 4.54942
2660 1 4.11945 21.5998 3.02748
2667 2 5.99774 21.6002 0.0473947
2674 2 6.08341 21.5994 2.8737
2644 1 10.1775 20.0586 1.54165
2653 2 12.0612 20.0577 4.45415
2655 2 8.14577 20.0609 1.32474
2666 1 11.0277 21.6013 4.37787
2676 2 9.99629 21.6012 0.115553
2677 2 10.1272 21.6031 2.75834
809 2 2.08404 18.5119 8.68163
812 2 1.95755 18.5112 6.03568
1379 1 1.89611 16.9665 7.25534
1389 2 2.08679 15.4282 8.68354
1390 2 3.93101 16.9723 7.47535
2642 1 4.95164 20.0548 5.87782
800 1 4.116 18.5156 8.89999
807 2 5.98961 18.5117 5.9277
814 2 6.08634 18.519 8.75924
834 2 6.09747 21.6029 8.77275
1385 1 7.11975 16.973 8.79979
824 1 10.1833 23.142 7.36135
827 2 5.99144 21.5972 5.93022
2643 1 7.95348 18.5134 5.77151
3702 1 4.94957 16.969 5.8768
820 1 4.12611 21.6044 8.91203
816 2 9.99059 18.5179 5.99038
817 2 10.1247 18.5224 8.64433
1384 1 10.1703 16.97 7.42858
1395 2 8.14288 16.9766 7.20407
1396 2 9.98399 15.4337 5.99932
805 1 7.13195 20.0573 8.79532
799 1 1.90603 20.0546 7.25587
810 2 3.9358 20.0574 7.47946
829 2 2.09232 21.6003 8.68916
832 2 1.96637 21.5997 6.03886
2659 1 1.91235 23.1444 1.37824
2678 2 8.01087 23.1411 4.5456
2664 1 10.1822 23.1428 1.53649
819 1 1.90884 23.1409 7.26114
2662 1 4.95563 23.1416 5.87947
2670 2 3.94064 23.1438 1.60057
2665 1 7.12231 23.1417 2.91481
2671 2 4.06563 23.1428 4.24919
2673 2 12.0685 23.1423 4.45684
830 2 3.94221 23.1409 7.48501
825 1 7.146 23.14 8.79408
3716 2 9.98562 15.4326 0.117273
1380 1 4.11494 15.43 8.90166
1394 2 6.08152 15.4313 8.75364
2002 1 4.95804 20.0577 7.99009e-04
719 2 2.07979 18.5071 14.5506
720 2 1.94229 18.493 11.8997
801 1 1.04876 18.4985 10.2683
979 1 1.89299 16.9528 13.1316
1156 2 9.98251 21.6217 17.7643
990 2 3.93512 16.971 13.3525
1135 2 8.14039 20.0549 19.0084
1124 1 10.2001 20.0453 19.2147
1388 2 0.0171799 16.955 10.2203
728 2 6.00334 18.5141 11.8107
739 2 6.09487 18.5302 14.6331
803 1 7.96314 18.5089 11.6415
985 1 7.11889 16.9733 14.6814
1144 1 10.2032 23.1384 19.2043
758 2 12.1028 23.1431 16.2125
1382 1 4.95493 16.9716 11.7535
756 1 11.0931 21.5871 16.2202
1391 2 4.06632 16.976 10.1229
1398 2 8.0153 16.9708 10.4294
750 2 9.99076 18.5256 11.8734
751 2 10.0956 18.5428 14.5303
806 1 11.0185 18.4932 10.2734
984 1 10.1627 16.9786 13.31
995 2 8.14102 16.9894 13.0821
753 2 12.0758 20.0431 16.1988
1147 2 5.97015 21.6714 17.5969
1139 1 1.85259 23.1418 19.0694
1393 2 12.0549 16.9554 10.3303
718 1 1.8689 20.0278 13.1032
723 2 2.07768 21.6127 14.5794
724 2 1.94367 21.5941 11.9174
726 1 1.87753 23.1397 13.1243
729 2 3.91028 20.0327 13.3191
735 2 3.93104 23.1406 13.3723
808 2 0.0243011 20.0497 10.2306
821 1 1.05703 21.5938 10.2742
733 2 6.00075 21.6009 11.8398
738 1 7.14137 20.0695 14.6984
743 2 6.02745 21.5629 14.6168
802 1 4.96979 20.0539 11.7404
811 2 4.06784 20.0599 10.1241
818 2 8.02954 20.057 10.433
823 1 7.93765 21.5847 11.6404
740 2 8.16613 20.1183 13.0979
745 2 8.35826 23.1425 12.9847
746 1 8.82597 23.1463 14.7688
749 1 10.1772 20.0469 13.2843
754 2 10.0736 21.5198 11.7735
755 2 10.0577 21.6838 14.6173
747 2 7.91778 23.1398 16.3624
813 2 12.0934 20.0171 10.3347
826 1 11.0895 21.5427 10.136
179 1 1.89961 16.9684 19.0109
190 2 3.9345 16.9819 19.2289
744 1 7.95877 21.532 17.6898
721 1 1.07228 18.5117 16.1604
742 2 7.98272 20.0953 16.3549
988 2 0.0320672 16.972 16.1087
1132 2 1.9669 18.5173 17.7917
822 1 4.95995 23.1413 11.7794
730 1 4.11615 18.484 14.7793
741 1 7.95954 18.4982 17.5391
737 2 4.28462 23.1406 15.9663
982 1 4.96093 16.9776 17.6386
734 1 4.04592 21.4999 14.6894
991 2 4.07096 16.961 16.0054
998 2 8.01386 16.9689 16.3134
1127 2 5.98908 18.535 17.6807
184 1 10.1922 16.9626 19.1919
195 2 8.15083 16.9777 18.9681
732 2 4.01277 20.0351 16.0049
752 1 11.0032 18.5186 16.1578
731 1 4.94732 20.0793 17.6169
993 2 12.0372 16.9839 16.1881
1136 2 9.98102 18.5327 17.7602
722 2 0.0387028 20.0576 16.1197
725 1 1.05584 21.5986 16.1893
1152 2 2.00683 21.6297 17.7963
1119 1 1.91361 20.0599 19.0143
1130 2 3.94268 20.0767 19.2327
831 2 4.07703 23.141 10.142
838 2 8.03231 23.1404 10.4419
736 1 4.78094 23.1398 17.8126
757 1 10.4535 23.1391 12.6817
833 2 12.0349 23.1409 10.3792
1150 2 3.87605 23.1416 19.3558
1155 2 8.12795 23.14 18.9741
996 2 9.98178 15.4322 11.8729
997 2 10.1031 15.4401 14.5268
196 2 9.9911 15.4351 17.758
986 1 11.0073 15.4371 16.155
2037 2 10.1278 21.6024 26.2919
188 2 0.0376004 16.9709 21.9892
189 2 2.09301 15.4298 20.439
1121 1 1.07103 18.5129 22.0425
1129 2 2.09101 18.5212 20.4417
2012 2 1.96583 18.5169 23.6721
2005 1 7.12365 20.0594 26.4492
2026 1 11.0242 21.5994 27.9196
182 1 4.95749 16.9694 23.5102
2015 2 8.14724 20.0631 24.8536
185 1 7.1256 16.9743 20.5639
191 2 4.0639 16.9697 21.8803
194 2 6.0872 15.4319 20.5091
198 2 8.01449 16.979 22.1946
1120 1 4.11481 18.5091 20.6564
1123 1 7.96328 18.5149 23.4233
1134 2 6.07879 18.514 20.506
2007 2 5.99785 18.5122 23.562
2827 2 6.00001 15.4299 23.5596
2013 2 12.0588 20.0552 27.9748
193 2 12.0562 16.98 22.1119
2004 1 10.1792 20.0594 25.0746
1126 1 11.0172 18.5134 22.0505
1137 2 10.1298 18.5083 20.4141
2016 2 9.98911 18.5234 23.6428
2836 2 9.99555 15.4332 23.6344
1128 2 0.0291912 20.0525 21.9947
1141 1 1.05612 21.5961 22.0635
1149 2 2.07524 21.5961 20.4656
2032 2 1.96364 21.6008 23.6826
1122 1 4.95753 20.051 23.5321
1125 1 7.09639 20.0596 20.6027
1131 2 4.06654 20.0433 21.8977
1138 2 8.00948 20.0655 22.2087
1140 1 4.09976 21.587 20.7211
1143 1 7.96448 21.6009 23.4373
1154 2 6.06644 21.6069 20.4709
2027 2 5.99475 21.5964 23.5602
1133 2 12.0564 20.0558 22.0922
1146 1 11.0236 21.5985 22.0536
1157 2 10.1263 21.5995 20.4155
2036 2 9.99483 21.6033 23.644
2001 1 1.07528 18.5144 27.9216
2009 2 2.09387 18.5158 26.3225
2819 1 1.9128 16.9704 24.8889
2034 2 6.08371 21.602 26.3909
2828 2 0.0403873 16.9706 27.87
2829 2 2.09824 15.4294 26.3182
2830 2 3.94036 16.9737 25.1106
2000 1 4.12088 18.5144 26.5445
2003 1 7.96075 18.5165 29.295
2014 2 6.08578 18.5173 26.3911
2023 1 7.96418 21.6007 29.2958
2822 1 4.9564 16.9724 29.3932
2020 1 4.11919 21.6011 26.555
2825 1 7.12459 16.9742 26.4427
2831 2 4.06724 16.9718 27.7616
2834 2 6.08736 15.4314 26.3909
2838 2 8.01422 16.9758 28.0735
2006 1 11.0156 18.5144 27.9195
2017 2 10.1157 18.5193 26.294
2824 1 10.1716 16.9751 25.0702
2018 2 8.01548 20.0599 28.0765
2833 2 12.0491 16.9703 27.9789
2835 2 8.14597 16.9752 24.8449
2011 2 4.06625 20.0568 27.7679
1999 1 1.90744 20.055 24.9008
2008 2 0.041309 20.0594 27.8728
2010 2 3.93693 20.0582 25.122
2021 1 1.07577 21.6026 27.9264
2029 2 2.09346 21.602 26.3284
2837 2 10.1103 15.4314 26.2917
1145 1 7.11346 23.1408 20.5937
1151 2 4.06177 23.1421 21.9211
1158 2 8.01072 23.1414 22.2083
1153 2 12.067 23.1378 22.0899
2038 2 8.01872 23.1427 28.0759
183 1 7.96703 15.4313 23.4087
2823 1 7.95846 15.4318 29.2913
1439 1 1.91282 26.2301 1.37634
1441 1 1.07867 24.6852 4.40645
1448 2 0.0397791 26.2273 4.35602
1449 2 2.09518 24.6868 2.80622
1450 2 3.94202 26.2281 1.59765
1452 2 1.96935 24.687 0.157512
3237 2 10.1323 27.7617 8.64588
2668 2 0.0405202 23.1436 4.35601
3056 2 9.99467 30.8491 6.00034
1440 1 4.12184 24.6856 3.02697
1445 1 7.12678 26.2274 2.9179
1447 2 6.00072 24.6856 0.0468313
1451 2 4.06756 26.2282 4.24655
1454 2 6.08624 24.6857 2.87329
1458 2 8.01554 26.2283 4.54939
3049 2 2.0981 30.8467 8.68168
3937 2 10.1218 30.8492 2.76865
3236 2 9.99902 27.7657 5.99125
1444 1 10.1837 26.2275 1.54144
1446 1 11.0302 24.6847 4.37797
1453 2 12.0662 26.2269 4.45385
1455 2 8.15218 26.2255 1.32434
1456 2 9.99968 24.6835 0.115293
1457 2 10.1306 24.6834 2.75796
3235 2 8.15225 29.3053 7.20522
3936 2 9.99804 30.8509 0.117256
2675 2 8.14887 23.1431 1.32286
1459 1 1.91418 29.3129 1.37365
1461 1 1.07832 27.7689 4.40283
1468 2 0.0390069 29.3106 4.3532
1469 2 2.09614 27.7704 2.80314
1470 2 3.94409 29.3106 1.59423
1472 2 1.97075 27.7706 0.153608
1460 1 4.1246 27.7698 3.02331
1465 1 7.13192 29.3102 2.92339
1467 2 6.00264 27.7691 0.0452176
1471 2 4.06968 29.3114 4.24372
1474 2 6.08974 27.7699 2.87412
1478 2 8.02218 29.3096 4.55535
1464 1 10.1819 29.3092 1.5466
1466 1 11.0239 27.7673 4.39336
1473 2 12.058 29.3103 4.45205
1475 2 8.15246 29.3077 1.32526
1476 2 10.0008 27.7671 0.118191
1477 2 10.1283 27.7657 2.76683
3224 1 10.18 29.3139 7.42973
3220 1 4.12586 27.7628 8.90091
3199 1 1.9119 26.2254 7.25675
3209 2 2.09451 24.6818 8.68973
3210 2 3.94262 26.2221 7.48022
3212 2 1.96858 24.6824 6.03901
1463 1 7.96133 27.7686 5.77221
1442 1 4.95652 26.2274 5.87745
1443 1 7.95697 24.6845 5.75957
3234 2 6.09582 27.7618 8.76213
3200 1 4.12958 24.6767 8.91226
3205 1 7.13943 26.2226 8.79747
3207 2 5.99451 24.6842 5.93004
3214 2 6.1013 24.6793 8.77382
3227 2 5.99736 27.7687 5.92762
3225 1 7.13145 29.3065 8.80269
3204 1 10.183 26.2396 7.38662
3215 2 8.14985 26.2256 7.19405
3216 2 9.99782 24.683 5.96778
3217 2 10.1196 24.6851 8.59038
3219 1 1.91274 29.3088 7.25341
3229 2 2.09366 27.7657 8.6818
3230 2 3.94334 29.3052 7.47552
3232 2 1.97019 27.7663 6.03371
1462 1 4.95897 29.3115 5.87457
3921 1 1.08009 30.8511 4.40044
3927 2 6.0027 30.8518 0.042662
3926 1 11.0128 30.8487 4.40002
3052 2 1.97386 30.8483 6.03032
3040 1 4.12637 30.8469 8.90284
3054 2 6.09209 30.8473 8.75669
2022 1 4.96096 23.1436 0.0042908
3282 1 4.96204 26.2284 4.58067e-04
828 2 0.0233677 23.1395 10.234
2319 1 1.87279 26.249 13.1042
2329 2 2.079 24.6717 14.5794
2330 2 3.91542 26.2462 13.3198
2332 2 1.94561 24.6844 11.9171
3201 1 1.05806 24.6839 10.2742
3208 2 0.0244314 26.2291 10.2324
2353 2 12.0564 29.3095 16.2118
727 2 0.0295021 23.1438 16.1297
3852 2 1.97256 30.8462 17.7871
2325 1 7.14458 26.2101 14.7003
2327 2 6.00496 24.6795 11.8406
2334 2 6.03136 24.716 14.6176
3202 1 4.97567 26.2271 11.7418
3203 1 7.94236 24.6965 11.6419
3211 2 4.07393 26.2206 10.1254
3218 2 8.03768 26.2243 10.4354
2177 2 10.1163 30.845 14.5341
2324 1 10.1835 26.2378 13.2909
2335 2 8.1724 26.1662 13.1015
2336 2 10.0774 24.7618 11.7767
2337 2 10.0582 24.6077 14.6227
3206 1 11.0905 24.7398 10.1378
3213 2 12.0965 26.2643 10.3362
2339 1 1.90147 29.3212 13.1297
2349 2 2.08547 27.7722 14.5507
2350 2 3.94223 29.3064 13.3525
2352 2 1.9512 27.7819 11.8994
3221 1 1.05865 27.7742 10.2678
3228 2 0.0245807 29.3175 10.2228
2345 1 7.1246 29.306 14.6822
2347 2 6.01181 27.7656 11.813
2354 2 6.09951 27.7498 14.6348
3222 1 4.96329 29.3074 11.7545
3223 1 7.9722 27.7721 11.6459
3231 2 4.0747 29.3024 10.124
3238 2 8.02701 29.3099 10.4332
2344 1 10.175 29.3067 13.3153
2355 2 8.15075 29.2927 13.0864
2356 2 10.0005 27.7582 11.8796
2357 2 10.1121 27.746 14.537
3226 1 11.0239 27.789 10.2764
3233 2 12.0604 29.3262 10.3372
2346 1 11.0173 27.7725 16.1658
1555 2 8.14949 29.2999 18.9686
1519 1 1.91574 26.2208 19.0151
1530 2 3.94631 26.2034 19.2344
1532 2 2.00722 24.6538 17.7957
2321 1 1.0553 24.6883 16.1888
2328 2 0.0347684 26.2284 16.1173
1527 2 5.97164 24.6075 17.5987
2320 1 4.0484 24.7796 14.69
2322 1 4.94984 26.1994 17.6184
2323 1 7.95972 24.7467 17.6921
2331 2 4.01707 26.2438 16.0055
2338 2 7.9864 26.1833 16.3566
1556 2 9.98615 27.7493 17.7631
1544 1 10.1826 29.3121 19.1945
1524 1 10.2026 26.2315 19.2181
1535 2 8.14432 26.2253 19.01
1536 2 9.98502 24.6593 17.7671
2326 1 11.0952 24.7007 16.2234
2333 2 12.0828 26.2429 16.2062
1539 1 1.91213 29.3066 19.0097
1550 2 3.94324 29.2955 19.2308
1552 2 1.97681 27.7601 17.7892
2341 1 1.07771 27.7681 16.16
2348 2 0.0351979 29.3075 16.1092
1547 2 5.9929 27.7429 17.6812
2340 1 4.12123 27.7938 14.7801
2342 1 4.96594 29.3006 17.638
2343 1 7.96277 27.7799 17.5382
2351 2 4.0752 29.3174 16.0053
2358 2 8.01835 29.3107 16.3148
2167 2 6.00219 30.8484 11.8048
2174 2 6.09036 30.8499 14.6321
2176 2 9.99242 30.8502 11.8808
2161 1 1.07527 30.8476 16.1584
3847 2 6.00163 30.8465 17.6861
2166 1 11.0142 30.8503 16.1632
3856 2 9.9937 30.8473 17.7626
748 1 6.20628 23.1387 15.5408
1148 2 0.0263691 23.1423 21.992
1521 1 1.05506 24.6885 22.063
1528 2 0.0254379 26.2323 21.9929
1529 2 2.07559 24.6886 20.4657
3292 2 1.96282 24.686 23.6821
3317 2 10.1342 27.7693 26.2902
3134 2 6.09309 30.8511 26.3905
3129 2 2.099 30.852 26.3171
3136 2 10.0012 30.8516 23.6378
1520 1 4.10176 24.6961 20.7212
1522 1 4.96211 26.233 23.5333
1523 1 7.96836 24.6827 23.4376
1525 1 7.10172 26.2219 20.605
1531 2 4.06932 26.2387 21.8997
1534 2 6.0691 24.6764 20.4724
1538 2 8.01597 26.2176 22.2103
3287 2 5.99823 24.6872 23.5611
3854 2 6.09199 30.8483 20.514
1526 1 11.0292 24.6811 22.0539
1533 2 12.0663 26.2241 22.0891
1537 2 10.1302 24.6775 20.4172
3296 2 9.99991 24.6807 23.644
1541 1 1.07458 27.7678 22.0416
1548 2 0.038703 29.3108 21.9871
1549 2 2.09545 27.759 20.4417
3312 2 1.96736 27.7667 23.6717
1540 1 4.12012 27.7705 20.6585
1542 1 4.96237 29.312 23.5122
1543 1 7.97182 27.7684 23.4249
1545 1 7.12958 29.3064 20.5687
1551 2 4.06773 29.3101 21.8827
1554 2 6.08362 27.7669 20.5098
1558 2 8.02383 29.3049 22.197
3307 2 6.00479 27.7707 23.5626
1546 1 11.0296 27.7694 22.0499
1553 2 12.0653 29.3126 22.0936
1557 2 10.1324 27.769 20.4182
3316 2 10.0018 27.7643 23.6418
3315 2 8.15597 29.3084 24.8467
2028 2 0.0390671 23.1456 27.8722
2030 2 3.93713 23.1441 25.1318
3279 1 1.90753 26.2304 24.9011
3281 1 1.07537 24.6879 27.9263
3288 2 0.0380652 26.2301 27.8708
3289 2 2.09382 24.6877 26.3284
3290 2 3.93908 26.2277 25.1218
3313 2 12.0634 29.3141 27.9707
3306 1 11.0265 27.7704 27.9203
2031 2 4.06622 23.1442 27.7734
3127 2 6.00488 30.8517 23.561
3280 1 4.12078 24.6865 26.5546
1142 1 4.95982 23.1427 23.5457
3283 1 7.96723 24.6849 29.2953
3285 1 7.12881 26.2261 26.4489
3291 2 4.06886 26.23 27.768
3294 2 6.08605 24.6855 26.391
3298 2 8.02241 26.2258 28.0757
3304 1 10.1862 29.3113 25.0691
2033 2 12.0651 23.1409 27.972
2035 2 8.14797 23.1434 24.8537
3284 1 10.1877 26.2265 25.0734
3286 1 11.0275 24.6844 27.9197
3293 2 12.0654 26.2273 27.9716