# LAMMPS data file written by OVITO Basic 3.7.9
9564 atoms
2 atom types
0.0489072 121.0218141321 xlo xhi
0.0 23.1429069994 ylo yhi
0.047220072 35.274583244 zlo zhi

Masses

1 69.723  # Ga
2 15.9994  # O

Atoms  # atomic

1 1 50.3467826472 13.885744199600001 13.138977356600002
2 1 52.5633305042 12.342883733 14.784722672700001
3 1 49.5170541624 12.342883733 16.1666554156
4 1 53.3930589889 13.885744199600001 17.636429262500002
5 1 56.4003187149 12.342883733 17.5451387907
6 1 58.616866571900005 13.885744199600001 13.3114994581
7 1 55.5705902301 13.885744199600001 14.6934322009
8 1 59.446595056700005 12.342883733 16.1632060479
9 2 54.4329173871 12.342883733 11.8059893696
10 2 48.4771957642 13.885744199600001 16.1177106598
11 2 50.5300920633 12.342883733 14.563793569100001
12 2 52.3800210881 13.885744199600001 13.359906460300001
13 2 52.4999111296 13.885744199600001 16.0065310618
14 2 50.4102020218 12.342883733 11.9171689675
15 2 60.4864534548 13.885744199600001 16.212150803700002
16 2 54.530731832 12.342883733 14.644487445100001
17 2 56.583628131 13.885744199600001 13.0905703544
18 2 58.4335571558 12.342883733 11.8866832456
19 2 58.5534471973 12.342883733 14.5333078472
20 2 56.4637380895 13.885744199600001 16.3233304016
21 1 50.3467826472 16.9714651329 13.138977356600002
22 1 52.5633305042 15.4286046663 14.784722672700001
23 1 49.5170541624 15.4286046663 16.1666554156
24 1 53.3930589889 16.9714651329 17.636429262500002
25 1 56.4003187149 15.4286046663 17.5451387907
26 1 58.616866571900005 16.9714651329 13.3114994581
27 1 55.5705902301 16.9714651329 14.6934322009
28 1 59.446595056700005 15.4286046663 16.1632060479
29 2 54.4329173871 15.4286046663 11.8059893696
30 2 48.4771957642 16.9714651329 16.1177106598
31 2 50.5300920633 15.4286046663 14.563793569100001
32 2 52.3800210881 16.9714651329 13.359906460300001
33 2 52.4999111296 16.9714651329 16.0065310618
34 2 50.4102020218 15.4286046663 11.9171689675
35 2 60.4864534548 16.9714651329 16.212150803700002
36 2 54.530731832 15.4286046663 14.644487445100001
37 2 56.583628131 16.9714651329 13.0905703544
38 2 58.4335571558 15.4286046663 11.8866832456
39 2 58.5534471973 15.4286046663 14.5333078472
40 2 56.4637380895 16.9714651329 16.3233304016
41 1 63.8704247826 13.3714541996 14.7343455761
42 1 64.6704026396 12.342883733 11.838276243400001
43 1 61.6241262979 12.342883733 13.220208986300001
44 1 68.5073908503 12.342883733 14.598692361500001
45 1 70.72393870740001 13.885744199600001 16.244437677500002
46 1 67.6776623656 13.885744199600001 17.6263704204
47 1 71.5536671921 12.342883733 13.216759618600001
48 2 66.5399895226 12.342883733 14.738927589000001
49 2 60.5842678997 13.885744199600001 13.1712642305
50 2 62.6371641987 12.342883733 17.4967317885
51 2 64.4870932235 13.885744199600001 16.2928446797
52 2 64.606983265 13.885744199600001 13.0600846326
53 2 62.5172741572 12.342883733 14.850107187
54 2 72.5935255903 13.885744199600001 13.2657043744
55 2 66.6378039674 12.342883733 17.5774256646
56 2 68.6907002664 13.885744199600001 16.023508573900003
57 2 70.54062929130001 12.342883733 14.819621465100001
58 2 70.66051933279999 12.342883733 17.466246066700002
59 2 68.570810225 13.885744199600001 13.3768839723
60 1 62.453854782600004 16.9714651329 16.0719155761
61 1 64.6704026396 15.4286046663 11.838276243400001
62 1 61.6241262979 15.4286046663 13.220208986300001
63 1 65.5001311244 16.9714651329 14.6899828332
64 1 68.5073908503 15.4286046663 14.598692361500001
65 1 70.72393870740001 16.9714651329 16.244437677500002
66 1 67.6776623656 16.9714651329 17.6263704204
67 1 71.5536671921 15.4286046663 13.216759618600001
68 2 66.5399895226 15.4286046663 14.738927589000001
69 2 60.5842678997 16.9714651329 13.1712642305
70 2 62.6371641987 15.4286046663 17.4967317885
71 2 64.4870932235 16.9714651329 16.2928446797
72 2 64.606983265 16.9714651329 13.0600846326
73 2 62.5172741572 15.4286046663 14.850107187
74 2 72.5935255903 16.9714651329 13.2657043744
75 2 66.6378039674 15.4286046663 17.5774256646
76 2 68.6907002664 16.9714651329 16.023508573900003
77 2 70.54062929130001 15.4286046663 14.819621465100001
78 2 70.66051933279999 15.4286046663 17.466246066700002
79 2 68.570810225 16.9714651329 13.3768839723
80 1 50.3467826472 7.714302333100001 24.897746654200002
81 1 52.5633305042 6.1714418665 26.5434919703
82 1 49.5170541624 6.1714418665 27.9254247132
83 1 53.3930589889 7.714302333100001 29.395198560100003
84 1 56.4003187149 6.1714418665 29.303908088300002
85 1 58.616866571900005 7.714302333100001 25.070268755700003
86 1 55.5705902301 7.714302333100001 26.452201498500003
87 1 59.446595056700005 6.1714418665 27.9219753455
88 2 54.4329173871 6.1714418665 23.564758667200003
89 2 48.4771957642 7.714302333100001 27.8764799574
90 2 50.5300920633 6.1714418665 26.3225628667
91 2 52.3800210881 7.714302333100001 25.1186757579
92 2 52.4999111296 7.714302333100001 27.7653003594
93 2 50.4102020218 6.1714418665 23.6759382651
94 2 60.4864534548 7.714302333100001 27.970920101300003
95 2 54.530731832 6.1714418665 26.403256742700002
96 2 56.583628131 7.714302333100001 24.849339652
97 2 58.4335571558 6.1714418665 23.6454525432
98 2 58.5534471973 6.1714418665 26.2920771448
99 2 56.4637380895 7.714302333100001 28.0820996992
100 1 50.3467826472 10.8000232664 24.897746654200002
101 1 52.5633305042 9.2571627998 26.5434919703
102 1 49.5170541624 9.2571627998 27.9254247132
103 1 53.3930589889 10.8000232664 29.395198560100003
104 1 56.4003187149 9.2571627998 29.303908088300002
105 1 58.616866571900005 10.8000232664 25.070268755700003
106 1 55.5705902301 10.8000232664 26.452201498500003
107 1 59.446595056700005 9.2571627998 27.9219753455
108 2 54.4329173871 9.2571627998 23.564758667200003
109 2 48.4771957642 10.8000232664 27.8764799574
110 2 50.5300920633 9.2571627998 26.3225628667
111 2 52.3800210881 10.8000232664 25.1186757579
112 2 52.4999111296 10.8000232664 27.7653003594
113 2 50.4102020218 9.2571627998 23.6759382651
114 2 60.4864534548 10.8000232664 27.970920101300003
115 2 54.530731832 9.2571627998 26.403256742700002
116 2 56.583628131 10.8000232664 24.849339652
117 2 58.4335571558 9.2571627998 23.6454525432
118 2 58.5534471973 9.2571627998 26.2920771448
119 2 56.4637380895 10.8000232664 28.0820996992
120 1 63.8704247826 7.2000123331 26.4931148737
121 1 64.6704026396 6.1714418665 23.597045541
122 1 61.6241262979 6.1714418665 24.978978283900002
123 1 68.5073908503 6.1714418665 26.3574616591
124 1 70.72393870740001 7.714302333100001 28.0032069751
125 1 67.6776623656 7.714302333100001 29.385139718
126 1 71.5536671921 6.1714418665 24.975528916200002
127 2 66.5399895226 6.1714418665 26.4976968866
128 2 60.5842678997 7.714302333100001 24.9300335281
129 2 62.6371641987 6.1714418665 29.2555010861
130 2 64.4870932235 7.714302333100001 28.0516139773
131 2 64.606983265 7.714302333100001 24.8188539302
132 2 62.5172741572 6.1714418665 26.608876484600003
133 2 72.5935255903 7.714302333100001 25.024473672000003
134 2 66.6378039674 6.1714418665 29.3361949622
135 2 68.6907002664 7.714302333100001 27.7822778715
136 2 70.54062929130001 6.1714418665 26.578390762700003
137 2 70.66051933279999 6.1714418665 29.225015364300003
138 2 68.570810225 7.714302333100001 25.1356532699
139 1 62.453854782600004 10.8000232664 27.8306848737
140 1 64.6704026396 9.2571627998 23.597045541
141 1 61.6241262979 9.2571627998 24.978978283900002
142 1 65.5001311244 10.8000232664 26.448752130800003
143 1 68.5073908503 9.2571627998 26.3574616591
144 1 70.72393870740001 10.8000232664 28.0032069751
145 1 67.6776623656 10.8000232664 29.385139718
146 1 71.5536671921 9.2571627998 24.975528916200002
147 2 66.5399895226 9.2571627998 26.4976968866
148 2 60.5842678997 10.8000232664 24.9300335281
149 2 62.6371641987 9.2571627998 29.2555010861
150 2 64.4870932235 10.8000232664 28.0516139773
151 2 64.606983265 10.8000232664 24.8188539302
152 2 62.5172741572 9.2571627998 26.608876484600003
153 2 72.5935255903 10.8000232664 25.024473672000003
154 2 66.6378039674 9.2571627998 29.3361949622
155 2 68.6907002664 10.8000232664 27.7822778715
156 2 70.54062929130001 9.2571627998 26.578390762700003
157 2 70.66051933279999 9.2571627998 29.225015364300003
158 2 68.570810225 10.8000232664 25.1356532699
159 1 1.9184941054 13.885744199600001 30.777131303
160 1 4.1350419624 12.342883733 32.4228766191
161 1 1.0887656206 12.342883733 33.804809362
162 1 4.9647704471 13.885744199600001 35.2745832089
163 1 7.9720301731 12.342883733 35.1832927371
164 1 10.1885780301 13.885744199600001 30.9496534045
165 1 7.1423016883 13.885744199600001 32.3315861473
166 1 11.0183065149 12.342883733 33.8013599943
167 2 6.0046288453 12.342883733 29.444143316
168 2 0.0489072224 13.885744199600001 33.7558646062
169 2 2.1018035215 12.342883733 32.2019475155
170 2 3.9517325463 13.885744199600001 30.9980604067
171 2 4.0716225878 13.885744199600001 33.6446850082
172 2 1.98191348 12.342883733 29.5553229139
173 2 12.058164913 13.885744199600001 33.8503047501
174 2 6.1024432902 12.342883733 32.2826413915
175 2 8.1553395892 13.885744199600001 30.7287243008
176 2 10.005268614 12.342883733 29.524837192
177 2 10.1251586555 12.342883733 32.1714617936
178 2 8.0354495477 13.885744199600001 33.961484348
179 1 1.9184941054 16.9714651329 30.777131303
180 1 4.1350419624 15.4286046663 32.4228766191
181 1 1.0887656206 15.4286046663 33.804809362
182 1 4.9647704471 16.9714651329 35.2745832089
183 1 7.9720301731 15.4286046663 35.1832927371
184 1 10.1885780301 16.9714651329 30.9496534045
185 1 7.1423016883 16.9714651329 32.3315861473
186 1 11.0183065149 15.4286046663 33.8013599943
187 2 6.0046288453 15.4286046663 29.444143316
188 2 0.0489072224 16.9714651329 33.7558646062
189 2 2.1018035215 15.4286046663 32.2019475155
190 2 3.9517325463 16.9714651329 30.9980604067
191 2 4.0716225878 16.9714651329 33.6446850082
192 2 1.98191348 15.4286046663 29.5553229139
193 2 12.058164913 16.9714651329 33.8503047501
194 2 6.1024432902 15.4286046663 32.2826413915
195 2 8.1553395892 16.9714651329 30.7287243008
196 2 10.005268614 15.4286046663 29.524837192
197 2 10.1251586555 15.4286046663 32.1714617936
198 2 8.0354495477 16.9714651329 33.961484348
199 1 15.4421362408 13.3714541996 32.3724995225
200 1 16.2421140978 12.342883733 29.4764301898
201 1 13.1958377561 12.342883733 30.8583629327
202 1 20.0791023085 12.342883733 32.2368463079
203 1 22.2956501656 13.885744199600001 33.8825916239
204 1 19.2493738238 13.885744199600001 35.2645243668
205 1 23.1253786503 12.342883733 30.854913565
206 2 18.1117009808 12.342883733 32.3770815354
207 2 12.1559793579 13.885744199600001 30.8094181769
208 2 14.2088756569 12.342883733 35.1348857349
209 2 16.0588046817 13.885744199600001 33.9309986261
210 2 16.1786947232 13.885744199600001 30.698238578999998
211 2 14.0889856154 12.342883733 32.4882611334
212 2 24.1652370485 13.885744199600001 30.9038583208
213 2 18.2095154256 12.342883733 35.215579611
214 2 20.2624117246 13.885744199600001 33.6616625203
215 2 22.1123407495 12.342883733 32.4577754115
216 2 22.232230791 12.342883733 35.1044000131
217 2 20.1425216832 13.885744199600001 31.0150379187
218 1 14.0255662408 16.9714651329 33.7100695225
219 1 16.2421140978 15.4286046663 29.4764301898
220 1 13.1958377561 15.4286046663 30.8583629327
221 1 17.0718425826 16.9714651329 32.3281367796
222 1 20.0791023085 15.4286046663 32.2368463079
223 1 22.2956501656 16.9714651329 33.8825916239
224 1 19.2493738238 16.9714651329 35.2645243668
225 1 23.1253786503 15.4286046663 30.854913565
226 2 18.1117009808 15.4286046663 32.3770815354
227 2 12.1559793579 16.9714651329 30.8094181769
228 2 14.2088756569 15.4286046663 35.1348857349
229 2 16.0588046817 16.9714651329 33.9309986261
230 2 16.1786947232 16.9714651329 30.698238578999998
231 2 14.0889856154 15.4286046663 32.4882611334
232 2 24.1652370485 16.9714651329 30.9038583208
233 2 18.2095154256 15.4286046663 35.215579611
234 2 20.2624117246 16.9714651329 33.6616625203
235 2 22.1123407495 15.4286046663 32.4577754115
236 2 22.232230791 15.4286046663 35.1044000131
237 2 20.1425216832 16.9714651329 31.0150379187
238 1 98.775071189 7.714302333100001 13.138977356600002
239 1 100.991619046 6.1714418665 14.784722672700001
240 1 97.9453427042 6.1714418665 16.1666554156
241 1 101.8213475307 7.714302333100001 17.636429262500002
242 1 104.8286072567 6.1714418665 17.5451387907
243 1 107.0451551137 7.714302333100001 13.3114994581
244 1 103.9988787719 7.714302333100001 14.6934322009
245 1 107.8748835985 6.1714418665 16.1632060479
246 2 102.8612059289 6.1714418665 11.8059893696
247 2 96.905484306 7.714302333100001 16.1177106598
248 2 98.9583806051 6.1714418665 14.563793569100001
249 2 100.8083096299 7.714302333100001 13.359906460300001
250 2 100.9281996714 7.714302333100001 16.0065310618
251 2 98.8384905636 6.1714418665 11.9171689675
252 2 108.9147419966 7.714302333100001 16.212150803700002
253 2 102.9590203738 6.1714418665 14.644487445100001
254 2 105.0119166728 7.714302333100001 13.0905703544
255 2 106.8618456976 6.1714418665 11.8866832456
256 2 106.9817357391 6.1714418665 14.5333078472
257 2 104.8920266313 7.714302333100001 16.3233304016
258 1 98.775071189 10.8000232664 13.138977356600002
259 1 100.991619046 9.2571627998 14.784722672700001
260 1 97.9453427042 9.2571627998 16.1666554156
261 1 101.8213475307 10.8000232664 17.636429262500002
262 1 104.8286072567 9.2571627998 17.5451387907
263 1 107.0451551137 10.8000232664 13.3114994581
264 1 103.9988787719 10.8000232664 14.6934322009
265 1 107.8748835985 9.2571627998 16.1632060479
266 2 102.8612059289 9.2571627998 11.8059893696
267 2 96.905484306 10.8000232664 16.1177106598
268 2 98.9583806051 9.2571627998 14.563793569100001
269 2 100.8083096299 10.8000232664 13.359906460300001
270 2 100.9281996714 10.8000232664 16.0065310618
271 2 98.8384905636 9.2571627998 11.9171689675
272 2 108.9147419966 10.8000232664 16.212150803700002
273 2 102.9590203738 9.2571627998 14.644487445100001
274 2 105.0119166728 10.8000232664 13.0905703544
275 2 106.8618456976 9.2571627998 11.8866832456
276 2 106.9817357391 9.2571627998 14.5333078472
277 2 104.8920266313 10.8000232664 16.3233304016
278 1 112.2987133244 7.2000123331 14.7343455761
279 1 113.0986911814 6.1714418665 11.838276243400001
280 1 110.0524148397 6.1714418665 13.220208986300001
281 1 116.9356793921 6.1714418665 14.598692361500001
282 1 119.1522272492 7.714302333100001 16.244437677500002
283 1 116.1059509074 7.714302333100001 17.6263704204
284 1 119.98195573390001 6.1714418665 13.216759618600001
285 2 114.9682780644 6.1714418665 14.738927589000001
286 2 109.0125564415 7.714302333100001 13.1712642305
287 2 111.0654527405 6.1714418665 17.4967317885
288 2 112.9153817653 7.714302333100001 16.2928446797
289 2 113.0352718068 7.714302333100001 13.0600846326
290 2 110.945562699 6.1714418665 14.850107187
291 2 121.0218141321 7.714302333100001 13.2657043744
292 2 115.0660925092 6.1714418665 17.5774256646
293 2 117.1189888082 7.714302333100001 16.023508573900003
294 2 118.9689178331 6.1714418665 14.819621465100001
295 2 119.08880787460001 6.1714418665 17.466246066700002
296 2 116.9990987668 7.714302333100001 13.3768839723
297 1 110.8821433244 10.8000232664 16.0719155761
298 1 113.0986911814 9.2571627998 11.838276243400001
299 1 110.0524148397 9.2571627998 13.220208986300001
300 1 113.9284196662 10.8000232664 14.6899828332
301 1 116.9356793921 9.2571627998 14.598692361500001
302 1 119.1522272492 10.8000232664 16.244437677500002
303 1 116.1059509074 10.8000232664 17.6263704204
304 1 119.98195573390001 9.2571627998 13.216759618600001
305 2 114.9682780644 9.2571627998 14.738927589000001
306 2 109.0125564415 10.8000232664 13.1712642305
307 2 111.0654527405 9.2571627998 17.4967317885
308 2 112.9153817653 10.8000232664 16.2928446797
309 2 113.0352718068 10.8000232664 13.0600846326
310 2 110.945562699 9.2571627998 14.850107187
311 2 121.0218141321 10.8000232664 13.2657043744
312 2 115.0660925092 9.2571627998 17.5774256646
313 2 117.1189888082 10.8000232664 16.023508573900003
314 2 118.9689178331 9.2571627998 14.819621465100001
315 2 119.08880787460001 9.2571627998 17.466246066700002
316 2 116.9990987668 10.8000232664 13.3768839723
317 1 50.3467826472 7.714302333100001 1.380208059
318 1 52.5633305042 6.1714418665 3.0259533751
319 1 49.5170541624 6.1714418665 4.407886118
320 1 53.3930589889 7.714302333100001 5.8776599649
321 1 56.4003187149 6.1714418665 5.7863694931
322 1 58.616866571900005 7.714302333100001 1.5527301605
323 1 55.5705902301 7.714302333100001 2.9346629033
324 1 59.446595056700005 6.1714418665 4.4044367503
325 2 54.4329173871 6.1714418665 0.047220072
326 2 48.4771957642 7.714302333100001 4.3589413622
327 2 50.5300920633 6.1714418665 2.8050242715
328 2 52.3800210881 7.714302333100001 1.6011371627
329 2 52.4999111296 7.714302333100001 4.2477617642
330 2 50.4102020218 6.1714418665 0.1583996699
331 2 60.4864534548 7.714302333100001 4.4533815061
332 2 54.530731832 6.1714418665 2.8857181475
333 2 56.583628131 7.714302333100001 1.3318010568
334 2 58.4335571558 6.1714418665 0.127913948
335 2 58.5534471973 6.1714418665 2.7745385496
336 2 56.4637380895 7.714302333100001 4.564561104
337 1 50.3467826472 10.8000232664 1.380208059
338 1 52.5633305042 9.2571627998 3.0259533751
339 1 49.5170541624 9.2571627998 4.407886118
340 1 53.3930589889 10.8000232664 5.8776599649
341 1 56.4003187149 9.2571627998 5.7863694931
342 1 58.616866571900005 10.8000232664 1.5527301605
343 1 55.5705902301 10.8000232664 2.9346629033
344 1 59.446595056700005 9.2571627998 4.4044367503
345 2 54.4329173871 9.2571627998 0.047220072
346 2 48.4771957642 10.8000232664 4.3589413622
347 2 50.5300920633 9.2571627998 2.8050242715
348 2 52.3800210881 10.8000232664 1.6011371627
349 2 52.4999111296 10.8000232664 4.2477617642
350 2 50.4102020218 9.2571627998 0.1583996699
351 2 60.4864534548 10.8000232664 4.4533815061
352 2 54.530731832 9.2571627998 2.8857181475
353 2 56.583628131 10.8000232664 1.3318010568
354 2 58.4335571558 9.2571627998 0.127913948
355 2 58.5534471973 9.2571627998 2.7745385496
356 2 56.4637380895 10.8000232664 4.564561104
357 1 63.8704247826 7.2000123331 2.9755762785
358 1 64.6704026396 6.1714418665 0.0795069458
359 1 61.6241262979 6.1714418665 1.4614396887
360 1 68.5073908503 6.1714418665 2.8399230639
361 1 70.72393870740001 7.714302333100001 4.4856683799
362 1 67.6776623656 7.714302333100001 5.8676011228
363 1 71.5536671921 6.1714418665 1.457990321
364 2 66.5399895226 6.1714418665 2.9801582914
365 2 60.5842678997 7.714302333100001 1.4124949329
366 2 62.6371641987 6.1714418665 5.7379624909
367 2 64.4870932235 7.714302333100001 4.5340753821
368 2 64.606983265 7.714302333100001 1.301315335
369 2 62.5172741572 6.1714418665 3.0913378894
370 2 72.5935255903 7.714302333100001 1.5069350768
371 2 66.6378039674 6.1714418665 5.818656367
372 2 68.6907002664 7.714302333100001 4.2647392763
373 2 70.54062929130001 6.1714418665 3.0608521675
374 2 70.66051933279999 6.1714418665 5.7074767691
375 2 68.570810225 7.714302333100001 1.6181146747
376 1 62.453854782600004 10.8000232664 4.3131462785
377 1 64.6704026396 9.2571627998 0.0795069458
378 1 61.6241262979 9.2571627998 1.4614396887
379 1 65.5001311244 10.8000232664 2.9312135356
380 1 68.5073908503 9.2571627998 2.8399230639
381 1 70.72393870740001 10.8000232664 4.4856683799
382 1 67.6776623656 10.8000232664 5.8676011228
383 1 71.5536671921 9.2571627998 1.457990321
384 2 66.5399895226 9.2571627998 2.9801582914
385 2 60.5842678997 10.8000232664 1.4124949329
386 2 62.6371641987 9.2571627998 5.7379624909
387 2 64.4870932235 10.8000232664 4.5340753821
388 2 64.606983265 10.8000232664 1.301315335
389 2 62.5172741572 9.2571627998 3.0913378894
390 2 72.5935255903 10.8000232664 1.5069350768
391 2 66.6378039674 9.2571627998 5.818656367
392 2 68.6907002664 10.8000232664 4.2647392763
393 2 70.54062929130001 9.2571627998 3.0608521675
394 2 70.66051933279999 9.2571627998 5.7074767691
395 2 68.570810225 10.8000232664 1.6181146747
396 1 74.56092691810001 20.0571860661 24.897746654200002
397 1 76.7774747751 18.5143255995 26.5434919703
398 1 73.73119843330001 18.5143255995 27.9254247132
399 1 77.6072032598 20.0571860661 29.395198560100003
400 1 80.6144629858 18.5143255995 29.303908088300002
401 1 82.83101084280001 20.0571860661 25.070268755700003
402 1 79.784734501 20.0571860661 26.452201498500003
403 1 83.66073932760001 18.5143255995 27.9219753455
404 2 78.64706165800001 18.5143255995 23.564758667200003
405 2 72.69134003510001 20.0571860661 27.8764799574
406 2 74.74423633420001 18.5143255995 26.3225628667
407 2 76.594165359 20.0571860661 25.1186757579
408 2 76.7140554005 20.0571860661 27.7653003594
409 2 74.62434629270001 18.5143255995 23.6759382651
410 2 84.7005977257 20.0571860661 27.970920101300003
411 2 78.74487610290001 18.5143255995 26.403256742700002
412 2 80.7977724019 20.0571860661 24.849339652
413 2 82.64770142670001 18.5143255995 23.6454525432
414 2 82.76759146820001 18.5143255995 26.2920771448
415 2 80.6778823604 20.0571860661 28.0820996992
416 1 74.56092691810001 23.1429069994 24.897746654200002
417 1 76.7774747751 21.6000465328 26.5434919703
418 1 73.73119843330001 21.6000465328 27.9254247132
419 1 77.6072032598 23.1429069994 29.395198560100003
420 1 80.6144629858 21.6000465328 29.303908088300002
421 1 82.83101084280001 23.1429069994 25.070268755700003
422 1 79.784734501 23.1429069994 26.452201498500003
423 1 83.66073932760001 21.6000465328 27.9219753455
424 2 78.64706165800001 21.6000465328 23.564758667200003
425 2 72.69134003510001 23.1429069994 27.8764799574
426 2 74.74423633420001 21.6000465328 26.3225628667
427 2 76.594165359 23.1429069994 25.1186757579
428 2 76.7140554005 23.1429069994 27.7653003594
429 2 74.62434629270001 21.6000465328 23.6759382651
430 2 84.7005977257 23.1429069994 27.970920101300003
431 2 78.74487610290001 21.6000465328 26.403256742700002
432 2 80.7977724019 23.1429069994 24.849339652
433 2 82.64770142670001 21.6000465328 23.6454525432
434 2 82.76759146820001 21.6000465328 26.2920771448
435 2 80.6778823604 23.1429069994 28.0820996992
436 1 88.0845690535 19.542896066100003 26.4931148737
437 1 88.8845469105 18.5143255995 23.597045541
438 1 85.83827056880001 18.5143255995 24.978978283900002
439 1 92.7215351212 18.5143255995 26.3574616591
440 1 94.9380829783 20.0571860661 28.0032069751
441 1 91.89180663650001 20.0571860661 29.385139718
442 1 95.76781146300002 18.5143255995 24.975528916200002
443 2 90.7541337935 18.5143255995 26.4976968866
444 2 84.7984121706 20.0571860661 24.9300335281
445 2 86.85130846960001 18.5143255995 29.2555010861
446 2 88.7012374944 20.0571860661 28.0516139773
447 2 88.8211275359 20.0571860661 24.8188539302
448 2 86.73141842810001 18.5143255995 26.608876484600003
449 2 96.80766986120001 20.0571860661 25.024473672000003
450 2 90.85194823830001 18.5143255995 29.3361949622
451 2 92.90484453730001 20.0571860661 27.7822778715
452 2 94.7547735622 18.5143255995 26.578390762700003
453 2 94.87466360370001 18.5143255995 29.225015364300003
454 2 92.78495449590001 20.0571860661 25.1356532699
455 1 86.66799905350001 23.1429069994 27.8306848737
456 1 88.8845469105 21.6000465328 23.597045541
457 1 85.83827056880001 21.6000465328 24.978978283900002
458 1 89.7142753953 23.1429069994 26.448752130800003
459 1 92.7215351212 21.6000465328 26.3574616591
460 1 94.9380829783 23.1429069994 28.0032069751
461 1 91.89180663650001 23.1429069994 29.385139718
462 1 95.76781146300002 21.6000465328 24.975528916200002
463 2 90.7541337935 21.6000465328 26.4976968866
464 2 84.7984121706 23.1429069994 24.9300335281
465 2 86.85130846960001 21.6000465328 29.2555010861
466 2 88.7012374944 23.1429069994 28.0516139773
467 2 88.8211275359 23.1429069994 24.8188539302
468 2 86.73141842810001 21.6000465328 26.608876484600003
469 2 96.80766986120001 23.1429069994 25.024473672000003
470 2 90.85194823830001 21.6000465328 29.3361949622
471 2 92.90484453730001 23.1429069994 27.7822778715
472 2 94.7547735622 21.6000465328 26.578390762700003
473 2 94.87466360370001 21.6000465328 29.225015364300003
474 2 92.78495449590001 23.1429069994 25.1356532699
475 1 50.3467826472 20.0571860661 1.380208059
476 1 52.5633305042 18.5143255995 3.0259533751
477 1 49.5170541624 18.5143255995 4.407886118
478 1 53.3930589889 20.0571860661 5.8776599649
479 1 56.4003187149 18.5143255995 5.7863694931
480 1 58.616866571900005 20.0571860661 1.5527301605
481 1 55.5705902301 20.0571860661 2.9346629033
482 1 59.446595056700005 18.5143255995 4.4044367503
483 2 54.4329173871 18.5143255995 0.047220072
484 2 48.4771957642 20.0571860661 4.3589413622
485 2 50.5300920633 18.5143255995 2.8050242715
486 2 52.3800210881 20.0571860661 1.6011371627
487 2 52.4999111296 20.0571860661 4.2477617642
488 2 50.4102020218 18.5143255995 0.1583996699
489 2 60.4864534548 20.0571860661 4.4533815061
490 2 54.530731832 18.5143255995 2.8857181475
491 2 56.583628131 20.0571860661 1.3318010568
492 2 58.4335571558 18.5143255995 0.127913948
493 2 58.5534471973 18.5143255995 2.7745385496
494 2 56.4637380895 20.0571860661 4.564561104
495 1 50.3467826472 23.1429069994 1.380208059
496 1 52.5633305042 21.6000465328 3.0259533751
497 1 49.5170541624 21.6000465328 4.407886118
498 1 53.3930589889 23.1429069994 5.8776599649
499 1 56.4003187149 21.6000465328 5.7863694931
500 1 58.616866571900005 23.1429069994 1.5527301605
501 1 55.5705902301 23.1429069994 2.9346629033
502 1 59.446595056700005 21.6000465328 4.4044367503
503 2 54.4329173871 21.6000465328 0.047220072
504 2 48.4771957642 23.1429069994 4.3589413622
505 2 50.5300920633 21.6000465328 2.8050242715
506 2 52.3800210881 23.1429069994 1.6011371627
507 2 52.4999111296 23.1429069994 4.2477617642
508 2 50.4102020218 21.6000465328 0.1583996699
509 2 60.4864534548 23.1429069994 4.4533815061
510 2 54.530731832 21.6000465328 2.8857181475
511 2 56.583628131 23.1429069994 1.3318010568
512 2 58.4335571558 21.6000465328 0.127913948
513 2 58.5534471973 21.6000465328 2.7745385496
514 2 56.4637380895 23.1429069994 4.564561104
515 1 63.8704247826 19.542896066100003 2.9755762785
516 1 64.6704026396 18.5143255995 0.0795069458
517 1 61.6241262979 18.5143255995 1.4614396887
518 1 68.5073908503 18.5143255995 2.8399230639
519 1 70.72393870740001 20.0571860661 4.4856683799
520 1 67.6776623656 20.0571860661 5.8676011228
521 1 71.5536671921 18.5143255995 1.457990321
522 2 66.5399895226 18.5143255995 2.9801582914
523 2 60.5842678997 20.0571860661 1.4124949329
524 2 62.6371641987 18.5143255995 5.7379624909
525 2 64.4870932235 20.0571860661 4.5340753821
526 2 64.606983265 20.0571860661 1.301315335
527 2 62.5172741572 18.5143255995 3.0913378894
528 2 72.5935255903 20.0571860661 1.5069350768
529 2 66.6378039674 18.5143255995 5.818656367
530 2 68.6907002664 20.0571860661 4.2647392763
531 2 70.54062929130001 18.5143255995 3.0608521675
532 2 70.66051933279999 18.5143255995 5.7074767691
533 2 68.570810225 20.0571860661 1.6181146747
534 1 62.453854782600004 23.1429069994 4.3131462785
535 1 64.6704026396 21.6000465328 0.0795069458
536 1 61.6241262979 21.6000465328 1.4614396887
537 1 65.5001311244 23.1429069994 2.9312135356
538 1 68.5073908503 21.6000465328 2.8399230639
539 1 70.72393870740001 23.1429069994 4.4856683799
540 1 67.6776623656 23.1429069994 5.8676011228
541 1 71.5536671921 21.6000465328 1.457990321
542 2 66.5399895226 21.6000465328 2.9801582914
543 2 60.5842678997 23.1429069994 1.4124949329
544 2 62.6371641987 21.6000465328 5.7379624909
545 2 64.4870932235 23.1429069994 4.5340753821
546 2 64.606983265 23.1429069994 1.301315335
547 2 62.5172741572 21.6000465328 3.0913378894
548 2 72.5935255903 23.1429069994 1.5069350768
549 2 66.6378039674 21.6000465328 5.818656367
550 2 68.6907002664 23.1429069994 4.2647392763
551 2 70.54062929130001 21.6000465328 3.0608521675
552 2 70.66051933279999 21.6000465328 5.7074767691
553 2 68.570810225 23.1429069994 1.6181146747
554 1 98.775071189 1.5428604666 1.380208059
555 1 100.991619046 0.0 3.0259533751
556 1 97.9453427042 0.0 4.407886118
557 1 101.8213475307 1.5428604666 5.8776599649
558 1 104.8286072567 0.0 5.7863694931
559 1 107.0451551137 1.5428604666 1.5527301605
560 1 103.9988787719 1.5428604666 2.9346629033
561 1 107.8748835985 0.0 4.4044367503
562 2 102.8612059289 0.0 0.047220072
563 2 96.905484306 1.5428604666 4.3589413622
564 2 98.9583806051 0.0 2.8050242715
565 2 100.8083096299 1.5428604666 1.6011371627
566 2 100.9281996714 1.5428604666 4.2477617642
567 2 98.8384905636 0.0 0.1583996699
568 2 108.9147419966 1.5428604666 4.4533815061
569 2 102.9590203738 0.0 2.8857181475
570 2 105.0119166728 1.5428604666 1.3318010568
571 2 106.8618456976 0.0 0.127913948
572 2 106.9817357391 0.0 2.7745385496
573 2 104.8920266313 1.5428604666 4.564561104
574 1 98.775071189 4.6285813999 1.380208059
575 1 100.991619046 3.0857209333 3.0259533751
576 1 97.9453427042 3.0857209333 4.407886118
577 1 101.8213475307 4.6285813999 5.8776599649
578 1 104.8286072567 3.0857209333 5.7863694931
579 1 107.0451551137 4.6285813999 1.5527301605
580 1 103.9988787719 4.6285813999 2.9346629033
581 1 107.8748835985 3.0857209333 4.4044367503
582 2 102.8612059289 3.0857209333 0.047220072
583 2 96.905484306 4.6285813999 4.3589413622
584 2 98.9583806051 3.0857209333 2.8050242715
585 2 100.8083096299 4.6285813999 1.6011371627
586 2 100.9281996714 4.6285813999 4.2477617642
587 2 98.8384905636 3.0857209333 0.1583996699
588 2 108.9147419966 4.6285813999 4.4533815061
589 2 102.9590203738 3.0857209333 2.8857181475
590 2 105.0119166728 4.6285813999 1.3318010568
591 2 106.8618456976 3.0857209333 0.127913948
592 2 106.9817357391 3.0857209333 2.7745385496
593 2 104.8920266313 4.6285813999 4.564561104
594 1 112.2987133244 1.0285704666 2.9755762785
595 1 113.0986911814 0.0 0.0795069458
596 1 110.0524148397 0.0 1.4614396887
597 1 116.9356793921 0.0 2.8399230639
598 1 119.1522272492 1.5428604666 4.4856683799
599 1 116.1059509074 1.5428604666 5.8676011228
600 1 119.98195573390001 0.0 1.457990321
601 2 114.9682780644 0.0 2.9801582914
602 2 109.0125564415 1.5428604666 1.4124949329
603 2 111.0654527405 0.0 5.7379624909
604 2 112.9153817653 1.5428604666 4.5340753821
605 2 113.0352718068 1.5428604666 1.301315335
606 2 110.945562699 0.0 3.0913378894