variable   out_step equal 1
thermo      ${out_step}
thermo      1

thermo_style    custom step dt time temp press pxx lx pyy ly pzz lz v_avol v_ape v_ake fmax etotal
thermo_modify   lost warn line one flush yes format 1 "ec %8lu" format float "%14.10g"
dump        mydump all custom ${out_step} dump.${filename}_thermalization id type x y z c_ep c_ek fx fy fz
dump        mydump all custom 1 dump.${filename}_thermalization id type x y z c_ep c_ek fx fy fz
dump        mydump all custom 1 dump.1695167821.86476_thermalization id type x y z c_ep c_ek fx fy fz

min_modify dmax 0.1
min_style cg
minimize 0 1.0e-6 10000 100000
Neighbor list info ...
  update every 1 steps, delay 0 steps, check yes
  max neighbors/atom: 2000, page size: 100000
  master list distance cutoff = 7
  ghost atom cutoff = 7
  binsize = 3.5, bins = 14 9 9
  1 neighbor lists, perpetual/occasional/extra = 1 0 0
  (1) pair quip, perpetual
      attributes: full, newton on
      pair build: full/bin/atomonly
      stencil: full/bin/3d
      bin: standard
Per MPI rank memory allocation (min/avg/max) = 5.857 | 5.859 | 5.861 Mbytes
   Step           Dt            Time           Temp          Press           Pxx             Lx            Pyy             Ly            Pzz             Lz           v_avol         v_ape          v_ake           Fmax          TotEng    
ec        0          0.001              0              0    4536.518267    5943.612797    48.42828854    1560.743285    30.85720933     6105.19872    29.39692324    10.98790401   -5.944883287              0    18.89550874   -23767.64338
ec        1          0.001          0.001              0    2918.747693    3957.065767    48.42828854    514.2660753    30.85720933    4284.911236    29.39692324    10.98790401   -5.950161326              0    9.870597323   -23788.74498
ec        2          0.001          0.002              0    2030.745089    2785.768995    48.42828854    52.90155054    30.85720933    3253.564723    29.39692324    10.98790401   -5.953577298              0    4.195673525   -23802.40204
ec        3          0.001          0.003              0    1926.682429    2758.457672    48.42828854    132.9947201    30.85720933    2888.594897    29.39692324    10.98790401   -5.956426506              0    2.735113077   -23813.79317
ec        4          0.001          0.004              0    2116.617783    3193.045905    48.42828854     186.350915    30.85720933     2970.45653    29.39692324    10.98790401   -5.958094997              0    2.400263833    -23820.4638
ec        5          0.001          0.005              0    2207.482107     3351.65797    48.42828854    358.6132646    30.85720933    2912.175086    29.39692324    10.98790401   -5.959091561              0    2.413166856   -23824.44806
ec        6          0.001          0.006              0    2330.493198    3800.362666    48.42828854    316.4687443    30.85720933    2874.648185    29.39692324    10.98790401   -5.959778326              0     3.42255591   -23827.19375
ec        7          0.001          0.007              0    2361.047939    3766.431939    48.42828854    517.2510405    30.85720933    2799.460838    29.39692324    10.98790401   -5.960291506              0    1.260691057   -23829.24544
ec        8          0.001          0.008              0    2477.242786    4157.248772    48.42828854    671.8293332    30.85720933    2602.650253    29.39692324    10.98790401   -5.960657275              0    3.059398068   -23830.70779
ec        9          0.001          0.009              0    2548.956202    4178.676968    48.42828854    968.4750321    30.85720933    2499.716606    29.39692324    10.98790401   -5.960985937              0   0.8794998181   -23832.02178
ec       10          0.001           0.01              0    2586.787127    4419.051192    48.42828854    1042.197619    30.85720933    2299.112568    29.39692324    10.98790401   -5.961141961              0   0.8714209719   -23832.64556
ec       11          0.001          0.011              0    2653.661874    4537.190215    48.42828854     1205.38903    30.85720933    2218.406379    29.39692324    10.98790401   -5.961255247              0   0.7936217064   -23833.09848
ec       12          0.001          0.012              0    2701.033118     4698.24884    48.42828854    1288.051338    30.85720933    2116.799177    29.39692324    10.98790401   -5.961345149              0     1.72610745   -23833.45791
ec       13          0.001          0.013              0    2753.208558    4818.897059    48.42828854    1440.180603    30.85720933    2000.548011    29.39692324    10.98790401   -5.961449113              0     1.28551716   -23833.87355
ec       14          0.001          0.014              0    2795.196117    4979.176023    48.42828854    1572.246916    30.85720933     1834.16541    29.39692324    10.98790401   -5.961556273              0   0.6933963528   -23834.30198
ec       15          0.001          0.015              0    2767.467834     5044.99063    48.42828854     1540.92684    30.85720933    1716.486034    29.39692324    10.98790401   -5.961680003              0    0.733546169   -23834.79665
ec       16          0.001          0.016              0    2664.956892    4976.382627    48.42828854    1445.954515    30.85720933    1572.533535    29.39692324    10.98790401   -5.961810971              0   0.8737436391   -23835.32026
ec       17          0.001          0.017              0    2592.515625    4946.431406    48.42828854    1351.552375    30.85720933    1479.563095    29.39692324    10.98790401   -5.961919386              0     1.37775196    -23835.7537
ec       18          0.001          0.018              0    2528.543998    4838.794932    48.42828854    1257.921109    30.85720933    1488.915952    29.39692324    10.98790401   -5.961993809              0   0.9002863946   -23836.05125
ec       19          0.001          0.019              0    2488.011686    4779.049937    48.42828854    1221.640963    30.85720933    1463.344158    29.39692324    10.98790401    -5.96206737              0   0.9872577831   -23836.34534
ec       20          0.001           0.02              0    2464.128661    4737.288304    48.42828854    1217.020662    30.85720933    1438.077019    29.39692324    10.98790401   -5.962125213              0    1.277317698    -23836.5766
ec       21          0.001          0.021              0    2435.620325    4647.879729    48.42828854    1209.312629    30.85720933    1449.668617    29.39692324    10.98790401   -5.962180583              0   0.8111759346   -23836.79797
ec       22          0.001          0.022              0    2437.484999    4624.804728    48.42828854    1214.320365    30.85720933    1473.329903    29.39692324    10.98790401   -5.962249665              0   0.8629995918   -23837.07416
ec       23          0.001          0.023              0    2443.967484    4608.345471    48.42828854    1149.324363    30.85720933    1574.232618    29.39692324    10.98790401   -5.962306814              0   0.9329796876   -23837.30264
ec       24          0.001          0.024              0    2417.206006    4556.272918    48.42828854    1115.342842    30.85720933    1580.002259    29.39692324    10.98790401   -5.962373853              0   0.6961645476   -23837.57067
ec       25          0.001          0.025              0     2402.09009    4501.982208    48.42828854    1095.221962    30.85720933      1609.0661    29.39692324    10.98790401   -5.962411927              0    0.475425343   -23837.72288
ec       26          0.001          0.026              0    2401.022903    4437.591544    48.42828854    1121.610705    30.85720933    1643.866461    29.39692324    10.98790401   -5.962457762              0   0.5127668683   -23837.90613
ec       27          0.001          0.027              0    2396.029455    4394.228484    48.42828854    1149.144974    30.85720933    1644.714907    29.39692324    10.98790401   -5.962504173              0   0.5026597409   -23838.09169
ec       28          0.001          0.028              0    2406.315536    4383.742339    48.42828854    1153.493136    30.85720933    1681.711132    29.39692324    10.98790401   -5.962538241              0   0.9303777706   -23838.22789
ec       29          0.001          0.029              0    2406.217194    4392.987584    48.42828854    1126.326609    30.85720933    1699.337389    29.39692324    10.98790401   -5.962570777              0   0.3268081799   -23838.35796
ec       30          0.001           0.03              0    2403.529809    4360.185012    48.42828854    1145.633655    30.85720933    1704.770761    29.39692324    10.98790401   -5.962589871              0   0.3318474172    -23838.4343
ec       31          0.001          0.031              0     2409.60751    4334.313768    48.42828854    1165.734252    30.85720933    1728.774511    29.39692324    10.98790401   -5.962602366              0    0.354409041   -23838.48426
ec       32          0.001          0.032              0    2418.544834    4338.386175    48.42828854    1186.949467    30.85720933    1730.298861    29.39692324    10.98790401   -5.962612226              0     0.43226321   -23838.52368
ec       33          0.001          0.033              0    2420.398781    4355.698531    48.42828854      1181.4751    30.85720933    1724.022711    29.39692324    10.98790401   -5.962620241              0   0.3101379219   -23838.55572
ec       34          0.001          0.034              0    2414.675705    4354.093825    48.42828854    1168.192571    30.85720933    1721.740718    29.39692324    10.98790401   -5.962629262              0   0.2116406995   -23838.59179
ec       35          0.001          0.035              0    2417.862442     4336.72921    48.42828854    1204.872292    30.85720933    1711.985825    29.39692324    10.98790401   -5.962639352              0   0.2087759819   -23838.63213
ec       36          0.001          0.036              0    2430.776721    4324.934103    48.42828854    1238.910379    30.85720933    1728.485682    29.39692324    10.98790401   -5.962649442              0    0.187385912   -23838.67247
ec       37          0.001          0.037              0    2434.483255    4324.484748    48.42828854    1234.955788    30.85720933    1744.009229    29.39692324    10.98790401   -5.962655989              0   0.1692399001   -23838.69864
ec       38          0.001          0.038              0    2430.517706    4325.549161    48.42828854    1226.497965    30.85720933    1739.505991    29.39692324    10.98790401   -5.962660381              0   0.1638325465    -23838.7162
ec       39          0.001          0.039              0    2429.091903    4319.065451    48.42828854    1228.840163    30.85720933    1739.370094    29.39692324    10.98790401   -5.962663748              0   0.1385283473   -23838.72966
ec       40          0.001           0.04              0    2426.394821    4305.522092    48.42828854    1232.198716    30.85720933    1741.463655    29.39692324    10.98790401   -5.962665718              0    0.105874919   -23838.73754
ec       41          0.001          0.041              0    2424.350471    4293.614857    48.42828854    1232.665303    30.85720933    1746.771252    29.39692324    10.98790401   -5.962666958              0   0.1104324553    -23838.7425
ec       42          0.001          0.042              0    2418.205234    4289.470806    48.42828854     1224.59237    30.85720933    1740.552526    29.39692324    10.98790401   -5.962667895              0  0.09925750855   -23838.74625
ec       43          0.001          0.043              0    2413.010891     4284.69537    48.42828854    1215.394576    30.85720933    1738.942727    29.39692324    10.98790401   -5.962668558              0  0.07260119194    -23838.7489
ec       44          0.001          0.044              0    2411.363378    4277.967027    48.42828854    1214.506647    30.85720933     1741.61646    29.39692324    10.98790401    -5.96266908              0  0.04814717373   -23838.75098
ec       45          0.001          0.045              0    2409.927182    4274.163232    48.42828854    1213.538988    30.85720933    1742.079328    29.39692324    10.98790401   -5.962669513              0  0.04003747663   -23838.75271
ec       46          0.001          0.046              0    2409.842877    4273.583478    48.42828854    1210.513523    30.85720933     1745.43163    29.39692324    10.98790401   -5.962669818              0  0.04268166796   -23838.75393
ec       47          0.001          0.047              0    2408.743282    4274.017155    48.42828854    1205.730397    30.85720933    1746.482293    29.39692324    10.98790401   -5.962670054              0  0.04769691668   -23838.75488
ec       48          0.001          0.048              0    2408.916612    4274.574565    48.42828854    1202.131468    30.85720933    1750.043801    29.39692324    10.98790401   -5.962670252              0  0.03037467071   -23838.75567
ec       49          0.001          0.049              0    2409.255352    4274.827759    48.42828854    1205.357792    30.85720933    1747.580504    29.39692324    10.98790401   -5.962670412              0  0.02097044082   -23838.75631
ec       50          0.001           0.05              0    2409.797272    4275.001888    48.42828854    1204.643971    30.85720933    1749.745958    29.39692324    10.98790401   -5.962670537              0  0.02139521941   -23838.75681
ec       51          0.001          0.051              0    2410.394858    4276.490489    48.42828854    1203.467406    30.85720933    1751.226679    29.39692324    10.98790401   -5.962670634              0   0.0198204936    -23838.7572
ec       52          0.001          0.052              0    2410.461679    4278.277767    48.42828854    1202.712245    30.85720933    1750.395025    29.39692324    10.98790401   -5.962670712              0  0.02481261701   -23838.75751
ec       53          0.001          0.053              0    2411.299958    4278.090936    48.42828854     1203.73322    30.85720933    1752.075718    29.39692324    10.98790401   -5.962670779              0  0.02882318804   -23838.75777
ec       54          0.001          0.054              0    2411.734069    4276.877283    48.42828854    1205.025776    30.85720933    1753.299147    29.39692324    10.98790401   -5.962670839              0  0.02118442469   -23838.75802
ec       55          0.001          0.055              0    2411.255929    4276.786976    48.42828854    1204.201176    30.85720933    1752.779636    29.39692324    10.98790401   -5.962670896              0  0.01464934047   -23838.75824
ec       56          0.001          0.056              0    2410.503086    4276.995931    48.42828854    1203.225568    30.85720933    1751.287759    29.39692324    10.98790401   -5.962670951              0  0.01604525843   -23838.75846
ec       57          0.001          0.057              0    2409.720515    4275.490865    48.42828854    1202.095413    30.85720933    1751.575266    29.39692324    10.98790401   -5.962670998              0  0.01680153182   -23838.75865
ec       58          0.001          0.058              0    2409.899384    4274.054636    48.42828854    1203.223026    30.85720933    1752.420489    29.39692324    10.98790401   -5.962671039              0  0.01445867439   -23838.75881
ec       59          0.001          0.059              0    2409.629132     4273.65085    48.42828854    1203.400585    30.85720933     1751.83596    29.39692324    10.98790401   -5.962671074              0  0.01257199433   -23838.75895
ec       60          0.001           0.06              0    2409.361701    4273.280627    48.42828854    1203.295457    30.85720933    1751.509018    29.39692324    10.98790401   -5.962671104              0 0.009733009075   -23838.75907
ec       61          0.001          0.061              0    2409.207656    4273.599006    48.42828854     1201.78831    30.85720933    1752.235653    29.39692324    10.98790401   -5.962671129              0  0.01313868628   -23838.75917
ec       62          0.001          0.062              0    2409.541014    4273.428927    48.42828854    1203.228877    30.85720933    1751.965238    29.39692324    10.98790401   -5.962671151              0  0.01808496779   -23838.75926
ec       63          0.001          0.063              0    2409.815587    4272.767074    48.42828854    1203.853564    30.85720933    1752.826124    29.39692324    10.98790401   -5.962671169              0   0.0163838092   -23838.75933
ec       64          0.001          0.064              0    2409.697812    4272.233611    48.42828854    1203.243157    30.85720933    1753.616669    29.39692324    10.98790401   -5.962671186              0  0.01217073379    -23838.7594
ec       65          0.001          0.065              0    2409.512611    4272.283338    48.42828854    1203.588565    30.85720933    1752.665931    29.39692324    10.98790401     -5.9626712              0  0.00651463085   -23838.75946
ec       66          0.001          0.066              0    2409.270335    4272.292129    48.42828854    1202.930244    30.85720933    1752.588632    29.39692324    10.98790401   -5.962671214              0 0.006002397277   -23838.75951
ec       67          0.001          0.067              0    2409.220729    4271.275606    48.42828854    1203.153765    30.85720933    1753.232816    29.39692324    10.98790401   -5.962671225              0  0.00545222226   -23838.75956
ec       68          0.001          0.068              0    2409.064133    4270.919166    48.42828854    1203.090949    30.85720933    1753.182284    29.39692324    10.98790401   -5.962671234              0   0.0069106775   -23838.75959
ec       69          0.001          0.069              0    2408.844032    4270.808278    48.42828854    1203.221092    30.85720933    1752.502725    29.39692324    10.98790401   -5.962671242              0 0.007605190431   -23838.75963
ec       70          0.001           0.07              0    2408.656704    4270.522738    48.42828854    1202.780065    30.85720933     1752.66731    29.39692324    10.98790401   -5.962671248              0 0.006500076141   -23838.75965
ec       71          0.001          0.071              0    2408.529411    4270.436415    48.42828854     1202.59292    30.85720933    1752.558897    29.39692324    10.98790401   -5.962671253              0 0.006441821155   -23838.75967
ec       72          0.001          0.072              0    2408.652171    4270.409151    48.42828854    1202.959172    30.85720933    1752.588191    29.39692324    10.98790401   -5.962671258              0 0.006851541206   -23838.75969
ec       73          0.001          0.073              0    2408.553165    4270.303666    48.42828854    1202.901651    30.85720933    1752.454177    29.39692324    10.98790401   -5.962671262              0 0.005861796811    -23838.7597
ec       74          0.001          0.074              0    2408.492219    4270.199605    48.42828854    1202.578142    30.85720933    1752.698909    29.39692324    10.98790401   -5.962671265              0 0.005911814822   -23838.75972
ec       75          0.001          0.075              0    2408.512846    4270.297735    48.42828854    1202.508242    30.85720933    1752.732561    29.39692324    10.98790401   -5.962671268              0 0.005398541505   -23838.75973
ec       76          0.001          0.076              0    2408.587234    4270.457366    48.42828854     1202.74695    30.85720933    1752.557387    29.39692324    10.98790401   -5.962671271              0 0.004593344005   -23838.75974
ec       77          0.001          0.077              0    2408.776133    4270.410195    48.42828854    1202.705701    30.85720933    1753.212503    29.39692324    10.98790401   -5.962671274              0 0.002714457423   -23838.75975
ec       78          0.001          0.078              0    2408.756496     4270.39099    48.42828854    1202.654587    30.85720933    1753.223912    29.39692324    10.98790401   -5.962671276              0 0.002481701035   -23838.75976
ec       79          0.001          0.079              0    2408.884856    4270.537017    48.42828854    1202.835765    30.85720933    1753.281787    29.39692324    10.98790401   -5.962671278              0 0.002305788583   -23838.75977
ec       80          0.001           0.08              0    2408.912585    4270.645391    48.42828854    1202.809392    30.85720933     1753.28297    29.39692324    10.98790401    -5.96267128              0 0.002278195598   -23838.75978
ec       81          0.001          0.081              0    2409.039155    4270.808045    48.42828854    1202.861796    30.85720933    1753.447624    29.39692324    10.98790401   -5.962671282              0 0.003216178097   -23838.75978
ec       82          0.001          0.082              0    2408.983919    4270.871961    48.42828854    1202.847384    30.85720933    1753.232411    29.39692324    10.98790401   -5.962671283              0 0.004452496999   -23838.75979
ec       83          0.001          0.083              0    2408.952805    4270.821933    48.42828854    1202.835992    30.85720933     1753.20049    29.39692324    10.98790401   -5.962671285              0 0.004791166852    -23838.7598
ec       84          0.001          0.084              0    2408.983805    4270.849558    48.42828854    1202.927959    30.85720933    1753.173897    29.39692324    10.98790401   -5.962671286              0 0.003693190741    -23838.7598
ec       85          0.001          0.085              0    2408.982675    4270.997812    48.42828854    1203.082642    30.85720933    1752.867571    29.39692324    10.98790401   -5.962671286              0 0.002319709472    -23838.7598
ec       86          0.001          0.086              0    2408.981649    4271.073144    48.42828854    1203.057808    30.85720933    1752.813995    29.39692324    10.98790401   -5.962671288              0 0.001738081407   -23838.75981
ec       87          0.001          0.087              0    2408.919831    4271.064608    48.42828854    1202.909619    30.85720933    1752.785266    29.39692324    10.98790401   -5.962671288              0 0.001675825844   -23838.75981
ec       88          0.001          0.088              0     2409.00266    4271.239453    48.42828854    1203.099792    30.85720933    1752.668736    29.39692324    10.98790401   -5.962671289              0  0.00171799062   -23838.75981
ec       89          0.001          0.089              0    2409.034487    4271.347799    48.42828854    1203.171081    30.85720933    1752.584582    29.39692324    10.98790401   -5.962671289              0 0.001370943153   -23838.75982
ec       90          0.001           0.09              0    2409.079843    4271.398153    48.42828854    1203.112113    30.85720933    1752.729262    29.39692324    10.98790401    -5.96267129              0 0.0009849322215   -23838.75982
ec       91          0.001          0.091              0    2409.098328    4271.505717    48.42828854    1203.168882    30.85720933    1752.620386    29.39692324    10.98790401    -5.96267129              0  0.00120078168   -23838.75982
ec       92          0.001          0.092              0    2409.135363    4271.562771    48.42828854    1203.226387    30.85720933     1752.61693    29.39692324    10.98790401    -5.96267129              0 0.001562088629   -23838.75982
ec       93          0.001          0.093              0    2409.146727    4271.552443    48.42828854    1203.243648    30.85720933    1752.644089    29.39692324    10.98790401    -5.96267129              0 0.001293907068   -23838.75982
ec       94          0.001          0.094              0    2409.160767    4271.541918    48.42828854    1203.238491    30.85720933    1752.701892    29.39692324    10.98790401   -5.962671291              0 0.0009567466716   -23838.75982
ec       95          0.001          0.095              0    2409.177914    4271.568631    48.42828854    1203.288947    30.85720933    1752.676164    29.39692324    10.98790401   -5.962671291              0 0.000663299343   -23838.75982
ec       96          0.001          0.096              0    2409.150089    4271.569456    48.42828854    1203.266479    30.85720933    1752.614332    29.39692324    10.98790401   -5.962671291              0  0.00066309379   -23838.75982
ec       97          0.001          0.097              0    2409.150089    4271.569456    48.42828854    1203.266479    30.85720933    1752.614332    29.39692324    10.98790401   -5.962671291              0  0.00066309379   -23838.75982
Loop time of 8971.18 on 48 procs for 97 steps with 3998 atoms

40.1% CPU use with 48 MPI tasks x no OpenMP threads

Minimization stats:
  Stopping criterion = linesearch alpha is zero
  Energy initial, next-to-last, final = 
     -23767.6433811906  -23838.7598222913  -23838.7598222913
  Force two-norm initial, final = 72.290672 0.0030490722
  Force max component initial, final = 18.895509 0.00066309379
  Final line search alpha, max atom move = 0.0009765625 6.4755253e-07
  Iterations, force evaluations = 97 205

MPI task timing breakdown:
Section |  min time  |  avg time  |  max time  |%varavg| %total
---------------------------------------------------------------
Pair    | 7154.1     | 8185.8     | 8804.4     | 378.7 | 91.25
Neigh   | 0.0011038  | 0.0014267  | 0.002024   |   0.6 |  0.00
Comm    | 65.582     | 646.44     | 1677.3     |1344.9 |  7.21
Output  | 73.218     | 73.335     | 73.498     |   0.7 |  0.82
Modify  | 0          | 0          | 0          |   0.0 |  0.00
Other   |            | 65.64      |            |       |  0.73

Nlocal:        83.2917 ave          97 max          71 min
Histogram: 2 4 4 10 9 6 3 3 5 2
Nghost:           1113 ave        1159 max        1082 min
Histogram: 4 18 9 1 0 0 0 3 6 7
Neighs:              0 ave           0 max           0 min
Histogram: 48 0 0 0 0 0 0 0 0 0
FullNghs:      10895.3 ave       12693 max        9298 min
Histogram: 2 4 4 10 11 5 2 4 4 2

Total # of neighbors = 522976
Ave neighs/atom = 130.8094
Neighbor list builds = 2
Dangerous builds = 0

undump mydump

# ####################### End of the one laser pulse #################################



Total wall time: 2:29:58
