# LAMMPS data file written by OVITO Basic 3.7.9
5105 atoms
2 atom types
0.0489072224 96.80766986120001 xlo xhi
0.0 23.1429069994 ylo yhi
0.047220072 23.515813911300004 zlo zhi

Masses

1 69.723  # Ga
2 15.9994  # O

Atoms  # atomic

1 1 1.9184941054 7.714302333100001 7.2595927078
2 1 4.1350419624 6.1714418665 8.9053380239
3 1 1.0887656206 6.1714418665 10.2872707668
4 1 4.9647704471 7.714302333100001 11.7570446137
5 1 7.9720301731 6.1714418665 11.665754141899999
6 1 10.1885780301 7.714302333100001 7.4321148093
7 1 7.1423016883 7.714302333100001 8.8140475521
8 1 11.0183065149 6.1714418665 10.2838213991
9 2 6.0046288453 6.1714418665 5.9266047208
10 2 0.0489072224 7.714302333100001 10.238326011000002
11 2 2.1018035215 6.1714418665 8.684408920300001
12 2 3.9517325463 7.714302333100001 7.4805218115
13 2 4.0716225878 7.714302333100001 10.127146413
14 2 1.98191348 6.1714418665 6.0377843187
15 2 12.058164913 7.714302333100001 10.3327661549
16 2 6.1024432902 6.1714418665 8.7651027963
17 2 8.1553395892 7.714302333100001 7.2111857056
18 2 10.005268614 6.1714418665 6.0072985968
19 2 10.1251586555 6.1714418665 8.653923198400001
20 2 8.0354495477 7.714302333100001 10.443945752800001
21 1 1.9184941054 10.8000232664 7.2595927078
22 1 4.1350419624 9.2571627998 8.9053380239
23 1 1.0887656206 9.2571627998 10.2872707668
24 1 4.9647704471 10.8000232664 11.7570446137
25 1 7.9720301731 9.2571627998 11.665754141899999
26 1 10.1885780301 10.8000232664 7.4321148093
27 1 7.1423016883 10.8000232664 8.8140475521
28 1 11.0183065149 9.2571627998 10.2838213991
29 2 6.0046288453 9.2571627998 5.9266047208
30 2 0.0489072224 10.8000232664 10.238326011000002
31 2 2.1018035215 9.2571627998 8.684408920300001
32 2 3.9517325463 10.8000232664 7.4805218115
33 2 4.0716225878 10.8000232664 10.127146413
34 2 1.98191348 9.2571627998 6.0377843187
35 2 12.058164913 10.8000232664 10.3327661549
36 2 6.1024432902 9.2571627998 8.7651027963
37 2 8.1553395892 10.8000232664 7.2111857056
38 2 10.005268614 9.2571627998 6.0072985968
39 2 10.1251586555 9.2571627998 8.653923198400001
40 2 8.0354495477 10.8000232664 10.443945752800001
41 1 15.4421362408 7.2000123331 8.8549609273
42 1 16.2421140978 6.1714418665 5.958891594600001
43 1 13.1958377561 6.1714418665 7.340824337500001
44 1 20.0791023085 6.1714418665 8.719307712700001
45 1 22.2956501656 7.714302333100001 10.3650530287
46 1 19.2493738238 7.714302333100001 11.7469857716
47 1 23.1253786503 6.1714418665 7.337374969800001
48 2 18.1117009808 6.1714418665 8.8595429402
49 2 12.1559793579 7.714302333100001 7.2918795817
50 2 14.2088756569 6.1714418665 11.617347139700001
51 2 16.0588046817 7.714302333100001 10.413460030900001
52 2 16.1786947232 7.714302333100001 7.1806999838
53 2 14.0889856154 6.1714418665 8.9707225382
54 2 24.1652370485 7.714302333100001 7.3863197256
55 2 18.2095154256 6.1714418665 11.698041015800001
56 2 20.2624117246 7.714302333100001 10.1441239251
57 2 22.1123407495 6.1714418665 8.9402368163
58 2 22.232230791 6.1714418665 11.5868614179
59 2 20.1425216832 7.714302333100001 7.4974993235000005
60 1 14.0255662408 10.8000232664 10.1925309273
61 1 16.2421140978 9.2571627998 5.958891594600001
62 1 13.1958377561 9.2571627998 7.340824337500001
63 1 17.0718425826 10.8000232664 8.8105981844
64 1 20.0791023085 9.2571627998 8.719307712700001
65 1 22.2956501656 10.8000232664 10.3650530287
66 1 19.2493738238 10.8000232664 11.7469857716
67 1 23.1253786503 9.2571627998 7.337374969800001
68 2 18.1117009808 9.2571627998 8.8595429402
69 2 12.1559793579 10.8000232664 7.2918795817
70 2 14.2088756569 9.2571627998 11.617347139700001
71 2 16.0588046817 10.8000232664 10.413460030900001
72 2 16.1786947232 10.8000232664 7.1806999838
73 2 14.0889856154 9.2571627998 8.9707225382
74 2 24.1652370485 10.8000232664 7.3863197256
75 2 18.2095154256 9.2571627998 11.698041015800001
76 2 20.2624117246 10.8000232664 10.1441239251
77 2 22.1123407495 9.2571627998 8.9402368163
78 2 22.232230791 9.2571627998 11.5868614179
79 2 20.1425216832 10.8000232664 7.4974993235000005
80 1 1.9184941054 13.885744199600001 13.138977356600002
81 1 4.1350419624 12.342883733 14.784722672700001
82 1 1.0887656206 12.342883733 16.1666554156
83 1 4.9647704471 13.885744199600001 17.636429262500002
84 1 7.9720301731 12.342883733 17.5451387907
85 1 10.1885780301 13.885744199600001 13.3114994581
86 1 7.1423016883 13.885744199600001 14.6934322009
87 1 11.0183065149 12.342883733 16.1632060479
88 2 6.0046288453 12.342883733 11.8059893696
89 2 0.0489072224 13.885744199600001 16.1177106598
90 2 2.1018035215 12.342883733 14.563793569100001
91 2 3.9517325463 13.885744199600001 13.359906460300001
92 2 4.0716225878 13.885744199600001 16.0065310618
93 2 1.98191348 12.342883733 11.9171689675
94 2 12.058164913 13.885744199600001 16.212150803700002
95 2 6.1024432902 12.342883733 14.644487445100001
96 2 8.1553395892 13.885744199600001 13.0905703544
97 2 10.005268614 12.342883733 11.8866832456
98 2 10.1251586555 12.342883733 14.5333078472
99 2 8.0354495477 13.885744199600001 16.3233304016
100 1 1.9184941054 16.9714651329 13.138977356600002
101 1 4.1350419624 15.4286046663 14.784722672700001
102 1 1.0887656206 15.4286046663 16.1666554156
103 1 4.9647704471 16.9714651329 17.636429262500002
104 1 7.9720301731 15.4286046663 17.5451387907
105 1 10.1885780301 16.9714651329 13.3114994581
106 1 7.1423016883 16.9714651329 14.6934322009
107 1 11.0183065149 15.4286046663 16.1632060479
108 2 6.0046288453 15.4286046663 11.8059893696
109 2 0.0489072224 16.9714651329 16.1177106598
110 2 2.1018035215 15.4286046663 14.563793569100001
111 2 3.9517325463 16.9714651329 13.359906460300001
112 2 4.0716225878 16.9714651329 16.0065310618
113 2 1.98191348 15.4286046663 11.9171689675
114 2 12.058164913 16.9714651329 16.212150803700002
115 2 6.1024432902 15.4286046663 14.644487445100001
116 2 8.1553395892 16.9714651329 13.0905703544
117 2 10.005268614 15.4286046663 11.8866832456
118 2 10.1251586555 15.4286046663 14.5333078472
119 2 8.0354495477 16.9714651329 16.3233304016
120 1 15.4421362408 13.3714541996 14.7343455761
121 1 16.2421140978 12.342883733 11.838276243400001
122 1 13.1958377561 12.342883733 13.220208986300001
123 1 20.0791023085 12.342883733 14.598692361500001
124 1 22.2956501656 13.885744199600001 16.244437677500002
125 1 19.2493738238 13.885744199600001 17.6263704204
126 1 23.1253786503 12.342883733 13.216759618600001
127 2 18.1117009808 12.342883733 14.738927589000001
128 2 12.1559793579 13.885744199600001 13.1712642305
129 2 14.2088756569 12.342883733 17.4967317885
130 2 16.0588046817 13.885744199600001 16.2928446797
131 2 16.1786947232 13.885744199600001 13.0600846326
132 2 14.0889856154 12.342883733 14.850107187
133 2 24.1652370485 13.885744199600001 13.2657043744
134 2 18.2095154256 12.342883733 17.5774256646
135 2 20.2624117246 13.885744199600001 16.023508573900003
136 2 22.1123407495 12.342883733 14.819621465100001
137 2 22.232230791 12.342883733 17.466246066700002
138 2 20.1425216832 13.885744199600001 13.3768839723
139 1 14.0255662408 16.9714651329 16.0719155761
140 1 16.2421140978 15.4286046663 11.838276243400001
141 1 13.1958377561 15.4286046663 13.220208986300001
142 1 17.0718425826 16.9714651329 14.6899828332
143 1 20.0791023085 15.4286046663 14.598692361500001
144 1 22.2956501656 16.9714651329 16.244437677500002
145 1 19.2493738238 16.9714651329 17.6263704204
146 1 23.1253786503 15.4286046663 13.216759618600001
147 2 18.1117009808 15.4286046663 14.738927589000001
148 2 12.1559793579 16.9714651329 13.1712642305
149 2 14.2088756569 15.4286046663 17.4967317885
150 2 16.0588046817 16.9714651329 16.2928446797
151 2 16.1786947232 16.9714651329 13.0600846326
152 2 14.0889856154 15.4286046663 14.850107187
153 2 24.1652370485 16.9714651329 13.2657043744
154 2 18.2095154256 15.4286046663 17.5774256646
155 2 20.2624117246 16.9714651329 16.023508573900003
156 2 22.1123407495 15.4286046663 14.819621465100001
157 2 22.232230791 15.4286046663 17.466246066700002
158 2 20.1425216832 16.9714651329 13.3768839723
159 1 1.9184941054 7.714302333100001 13.138977356600002
160 1 4.1350419624 6.1714418665 14.784722672700001
161 1 1.0887656206 6.1714418665 16.1666554156
162 1 4.9647704471 7.714302333100001 17.636429262500002
163 1 7.9720301731 6.1714418665 17.5451387907
164 1 10.1885780301 7.714302333100001 13.3114994581
165 1 7.1423016883 7.714302333100001 14.6934322009
166 1 11.0183065149 6.1714418665 16.1632060479
167 2 6.0046288453 6.1714418665 11.8059893696
168 2 0.0489072224 7.714302333100001 16.1177106598
169 2 2.1018035215 6.1714418665 14.563793569100001
170 2 3.9517325463 7.714302333100001 13.359906460300001
171 2 4.0716225878 7.714302333100001 16.0065310618
172 2 1.98191348 6.1714418665 11.9171689675
173 2 12.058164913 7.714302333100001 16.212150803700002
174 2 6.1024432902 6.1714418665 14.644487445100001
175 2 8.1553395892 7.714302333100001 13.0905703544
176 2 10.005268614 6.1714418665 11.8866832456
177 2 10.1251586555 6.1714418665 14.5333078472
178 2 8.0354495477 7.714302333100001 16.3233304016
179 1 1.9184941054 10.8000232664 13.138977356600002
180 1 4.1350419624 9.2571627998 14.784722672700001
181 1 1.0887656206 9.2571627998 16.1666554156
182 1 4.9647704471 10.8000232664 17.636429262500002
183 1 7.9720301731 9.2571627998 17.5451387907
184 1 10.1885780301 10.8000232664 13.3114994581
185 1 7.1423016883 10.8000232664 14.6934322009
186 1 11.0183065149 9.2571627998 16.1632060479
187 2 6.0046288453 9.2571627998 11.8059893696
188 2 0.0489072224 10.8000232664 16.1177106598
189 2 2.1018035215 9.2571627998 14.563793569100001
190 2 3.9517325463 10.8000232664 13.359906460300001
191 2 4.0716225878 10.8000232664 16.0065310618
192 2 1.98191348 9.2571627998 11.9171689675
193 2 12.058164913 10.8000232664 16.212150803700002
194 2 6.1024432902 9.2571627998 14.644487445100001
195 2 8.1553395892 10.8000232664 13.0905703544
196 2 10.005268614 9.2571627998 11.8866832456
197 2 10.1251586555 9.2571627998 14.5333078472
198 2 8.0354495477 10.8000232664 16.3233304016
199 1 15.4421362408 7.2000123331 14.7343455761
200 1 16.2421140978 6.1714418665 11.838276243400001
201 1 13.1958377561 6.1714418665 13.220208986300001
202 1 20.0791023085 6.1714418665 14.598692361500001
203 1 22.2956501656 7.714302333100001 16.244437677500002
204 1 19.2493738238 7.714302333100001 17.6263704204
205 1 23.1253786503 6.1714418665 13.216759618600001
206 2 18.1117009808 6.1714418665 14.738927589000001
207 2 12.1559793579 7.714302333100001 13.1712642305
208 2 14.2088756569 6.1714418665 17.4967317885
209 2 16.0588046817 7.714302333100001 16.2928446797
210 2 16.1786947232 7.714302333100001 13.0600846326
211 2 14.0889856154 6.1714418665 14.850107187
212 2 24.1652370485 7.714302333100001 13.2657043744
213 2 18.2095154256 6.1714418665 17.5774256646
214 2 20.2624117246 7.714302333100001 16.023508573900003
215 2 22.1123407495 6.1714418665 14.819621465100001
216 2 22.232230791 6.1714418665 17.466246066700002
217 2 20.1425216832 7.714302333100001 13.3768839723
218 1 14.0255662408 10.8000232664 16.0719155761
219 1 16.2421140978 9.2571627998 11.838276243400001
220 1 13.1958377561 9.2571627998 13.220208986300001
221 1 17.0718425826 10.8000232664 14.6899828332
222 1 20.0791023085 9.2571627998 14.598692361500001
223 1 22.2956501656 10.8000232664 16.244437677500002
224 1 19.2493738238 10.8000232664 17.6263704204
225 1 23.1253786503 9.2571627998 13.216759618600001
226 2 18.1117009808 9.2571627998 14.738927589000001
227 2 12.1559793579 10.8000232664 13.1712642305
228 2 14.2088756569 9.2571627998 17.4967317885
229 2 16.0588046817 10.8000232664 16.2928446797
230 2 16.1786947232 10.8000232664 13.0600846326
231 2 14.0889856154 9.2571627998 14.850107187
232 2 24.1652370485 10.8000232664 13.2657043744
233 2 18.2095154256 9.2571627998 17.5774256646
234 2 20.2624117246 10.8000232664 16.023508573900003
235 2 22.1123407495 9.2571627998 14.819621465100001
236 2 22.232230791 9.2571627998 17.466246066700002
237 2 20.1425216832 10.8000232664 13.3768839723
238 1 74.56092691810001 7.714302333100001 7.2595927078
239 1 76.7774747751 6.1714418665 8.9053380239
240 1 73.73119843330001 6.1714418665 10.2872707668
241 1 77.6072032598 7.714302333100001 11.7570446137
242 1 80.6144629858 6.1714418665 11.665754141899999
243 1 82.83101084280001 7.714302333100001 7.4321148093
244 1 79.784734501 7.714302333100001 8.8140475521
245 1 83.66073932760001 6.1714418665 10.2838213991
246 2 78.64706165800001 6.1714418665 5.9266047208
247 2 72.69134003510001 7.714302333100001 10.238326011000002
248 2 74.74423633420001 6.1714418665 8.684408920300001
249 2 76.594165359 7.714302333100001 7.4805218115
250 2 76.7140554005 7.714302333100001 10.127146413
251 2 74.62434629270001 6.1714418665 6.0377843187
252 2 84.7005977257 7.714302333100001 10.3327661549
253 2 78.74487610290001 6.1714418665 8.7651027963
254 2 80.7977724019 7.714302333100001 7.2111857056
255 2 82.64770142670001 6.1714418665 6.0072985968
256 2 82.76759146820001 6.1714418665 8.653923198400001
257 2 80.6778823604 7.714302333100001 10.443945752800001
258 1 74.56092691810001 10.8000232664 7.2595927078
259 1 76.7774747751 9.2571627998 8.9053380239
260 1 73.73119843330001 9.2571627998 10.2872707668
261 1 77.6072032598 10.8000232664 11.7570446137
262 1 80.6144629858 9.2571627998 11.665754141899999
263 1 82.83101084280001 10.8000232664 7.4321148093
264 1 79.784734501 10.8000232664 8.8140475521
265 1 83.66073932760001 9.2571627998 10.2838213991
266 2 78.64706165800001 9.2571627998 5.9266047208
267 2 72.69134003510001 10.8000232664 10.238326011000002
268 2 74.74423633420001 9.2571627998 8.684408920300001
269 2 76.594165359 10.8000232664 7.4805218115
270 2 76.7140554005 10.8000232664 10.127146413
271 2 74.62434629270001 9.2571627998 6.0377843187
272 2 84.7005977257 10.8000232664 10.3327661549
273 2 78.74487610290001 9.2571627998 8.7651027963
274 2 80.7977724019 10.8000232664 7.2111857056
275 2 82.64770142670001 9.2571627998 6.0072985968
276 2 82.76759146820001 9.2571627998 8.653923198400001
277 2 80.6778823604 10.8000232664 10.443945752800001
278 1 88.0845690535 7.2000123331 8.8549609273
279 1 88.8845469105 6.1714418665 5.958891594600001
280 1 85.83827056880001 6.1714418665 7.340824337500001
281 1 92.7215351212 6.1714418665 8.719307712700001
282 1 94.9380829783 7.714302333100001 10.3650530287
283 1 91.89180663650001 7.714302333100001 11.7469857716
284 1 95.76781146300002 6.1714418665 7.337374969800001
285 2 90.7541337935 6.1714418665 8.8595429402
286 2 84.7984121706 7.714302333100001 7.2918795817
287 2 86.85130846960001 6.1714418665 11.617347139700001
288 2 88.7012374944 7.714302333100001 10.413460030900001
289 2 88.8211275359 7.714302333100001 7.1806999838
290 2 86.73141842810001 6.1714418665 8.9707225382
291 2 96.80766986120001 7.714302333100001 7.3863197256
292 2 90.85194823830001 6.1714418665 11.698041015800001
293 2 92.90484453730001 7.714302333100001 10.1441239251
294 2 94.7547735622 6.1714418665 8.9402368163
295 2 94.87466360370001 6.1714418665 11.5868614179
296 2 92.78495449590001 7.714302333100001 7.4974993235000005
297 1 86.66799905350001 10.8000232664 10.1925309273
298 1 88.8845469105 9.2571627998 5.958891594600001
299 1 85.83827056880001 9.2571627998 7.340824337500001
300 1 89.7142753953 10.8000232664 8.8105981844
301 1 92.7215351212 9.2571627998 8.719307712700001
302 1 94.9380829783 10.8000232664 10.3650530287
303 1 91.89180663650001 10.8000232664 11.7469857716
304 1 95.76781146300002 9.2571627998 7.337374969800001
305 2 90.7541337935 9.2571627998 8.8595429402
306 2 84.7984121706 10.8000232664 7.2918795817
307 2 86.85130846960001 9.2571627998 11.617347139700001
308 2 88.7012374944 10.8000232664 10.413460030900001
309 2 88.8211275359 10.8000232664 7.1806999838
310 2 86.73141842810001 9.2571627998 8.9707225382
311 2 96.80766986120001 10.8000232664 7.3863197256
312 2 90.85194823830001 9.2571627998 11.698041015800001
313 2 92.90484453730001 10.8000232664 10.1441239251
314 2 94.7547735622 9.2571627998 8.9402368163
315 2 94.87466360370001 9.2571627998 11.5868614179
316 2 92.78495449590001 10.8000232664 7.4974993235000005
317 1 1.9184941054 13.885744199600001 7.2595927078
318 1 4.1350419624 12.342883733 8.9053380239
319 1 1.0887656206 12.342883733 10.2872707668
320 1 4.9647704471 13.885744199600001 11.7570446137
321 1 7.9720301731 12.342883733 11.665754141899999
322 1 10.1885780301 13.885744199600001 7.4321148093
323 1 7.1423016883 13.885744199600001 8.8140475521
324 1 11.0183065149 12.342883733 10.2838213991
325 2 6.0046288453 12.342883733 5.9266047208
326 2 0.0489072224 13.885744199600001 10.238326011000002
327 2 2.1018035215 12.342883733 8.684408920300001
328 2 3.9517325463 13.885744199600001 7.4805218115
329 2 4.0716225878 13.885744199600001 10.127146413
330 2 1.98191348 12.342883733 6.0377843187
331 2 12.058164913 13.885744199600001 10.3327661549
332 2 6.1024432902 12.342883733 8.7651027963
333 2 8.1553395892 13.885744199600001 7.2111857056
334 2 10.005268614 12.342883733 6.0072985968
335 2 10.1251586555 12.342883733 8.653923198400001
336 2 8.0354495477 13.885744199600001 10.443945752800001
337 1 1.9184941054 16.9714651329 7.2595927078
338 1 4.1350419624 15.4286046663 8.9053380239
339 1 1.0887656206 15.4286046663 10.2872707668
340 1 4.9647704471 16.9714651329 11.7570446137
341 1 7.9720301731 15.4286046663 11.665754141899999
342 1 10.1885780301 16.9714651329 7.4321148093
343 1 7.1423016883 16.9714651329 8.8140475521
344 1 11.0183065149 15.4286046663 10.2838213991
345 2 6.0046288453 15.4286046663 5.9266047208
346 2 0.0489072224 16.9714651329 10.238326011000002
347 2 2.1018035215 15.4286046663 8.684408920300001
348 2 3.9517325463 16.9714651329 7.4805218115
349 2 4.0716225878 16.9714651329 10.127146413
350 2 1.98191348 15.4286046663 6.0377843187
351 2 12.058164913 16.9714651329 10.3327661549
352 2 6.1024432902 15.4286046663 8.7651027963
353 2 8.1553395892 16.9714651329 7.2111857056
354 2 10.005268614 15.4286046663 6.0072985968
355 2 10.1251586555 15.4286046663 8.653923198400001
356 2 8.0354495477 16.9714651329 10.443945752800001
357 1 14.0255662408 13.885744199600001 10.1925309273
358 1 16.2421140978 12.342883733 5.958891594600001
359 1 13.1958377561 12.342883733 7.340824337500001
360 1 20.0791023085 12.342883733 8.719307712700001
361 1 22.2956501656 13.885744199600001 10.3650530287
362 1 18.1605738238 13.885744199600001 10.278785771599999
363 1 23.1253786503 12.342883733 7.337374969800001
364 2 18.1117009808 12.342883733 8.8595429402
365 2 12.1559793579 13.885744199600001 7.2918795817
366 2 14.2088756569 12.342883733 11.617347139700001
367 2 16.0588046817 13.885744199600001 10.413460030900001
368 2 16.1786947232 13.885744199600001 7.1806999838
369 2 14.0889856154 12.342883733 8.9707225382
370 2 24.1652370485 13.885744199600001 7.3863197256
371 2 18.2095154256 12.342883733 11.698041015800001
372 2 20.2624117246 13.885744199600001 10.1441239251
373 2 22.1123407495 12.342883733 8.9402368163
374 2 22.232230791 12.342883733 11.5868614179
375 2 20.1425216832 13.885744199600001 7.4974993235000005
376 1 14.0255662408 16.9714651329 10.1925309273
377 1 16.2421140978 15.4286046663 5.958891594600001
378 1 13.1958377561 15.4286046663 7.340824337500001
379 1 17.0718425826 16.9714651329 8.8105981844
380 1 20.0791023085 15.4286046663 8.719307712700001
381 1 22.2956501656 16.9714651329 10.3650530287
382 1 19.2493738238 16.9714651329 11.7469857716
383 1 23.1253786503 15.4286046663 7.337374969800001
384 2 18.1117009808 15.4286046663 8.8595429402
385 2 12.1559793579 16.9714651329 7.2918795817
386 2 14.2088756569 15.4286046663 11.617347139700001
387 2 16.0588046817 16.9714651329 10.413460030900001
388 2 16.1786947232 16.9714651329 7.1806999838
389 2 14.0889856154 15.4286046663 8.9707225382
390 2 24.1652370485 16.9714651329 7.3863197256
391 2 18.2095154256 15.4286046663 11.698041015800001
392 2 20.2624117246 16.9714651329 10.1441239251
393 2 22.1123407495 15.4286046663 8.9402368163
394 2 22.232230791 15.4286046663 11.5868614179
395 2 20.1425216832 16.9714651329 7.4974993235000005
396 1 50.3467826472 7.714302333100001 7.2595927078
397 1 52.5633305042 6.1714418665 8.9053380239
398 1 49.5170541624 6.1714418665 10.2872707668
399 1 53.3930589889 7.714302333100001 11.7570446137
400 1 56.4003187149 6.1714418665 11.665754141899999
401 1 58.616866571900005 7.714302333100001 7.4321148093
402 1 55.5705902301 7.714302333100001 8.8140475521
403 1 59.446595056700005 6.1714418665 10.2838213991
404 2 54.4329173871 6.1714418665 5.9266047208
405 2 48.4771957642 7.714302333100001 10.238326011000002
406 2 50.5300920633 6.1714418665 8.684408920300001
407 2 52.3800210881 7.714302333100001 7.4805218115
408 2 52.4999111296 7.714302333100001 10.127146413
409 2 50.4102020218 6.1714418665 6.0377843187
410 2 60.4864534548 7.714302333100001 10.3327661549
411 2 54.530731832 6.1714418665 8.7651027963
412 2 56.583628131 7.714302333100001 7.2111857056
413 2 58.4335571558 6.1714418665 6.0072985968
414 2 58.5534471973 6.1714418665 8.653923198400001
415 2 56.4637380895 7.714302333100001 10.443945752800001
416 1 50.3467826472 10.8000232664 7.2595927078
417 1 52.5633305042 9.2571627998 8.9053380239
418 1 49.5170541624 9.2571627998 10.2872707668
419 1 53.3930589889 10.8000232664 11.7570446137
420 1 56.4003187149 9.2571627998 11.665754141899999
421 1 58.616866571900005 10.8000232664 7.4321148093
422 1 55.5705902301 10.8000232664 8.8140475521
423 1 59.446595056700005 9.2571627998 10.2838213991
424 2 54.4329173871 9.2571627998 5.9266047208
425 2 48.4771957642 10.8000232664 10.238326011000002
426 2 50.5300920633 9.2571627998 8.684408920300001
427 2 52.3800210881 10.8000232664 7.4805218115
428 2 52.4999111296 10.8000232664 10.127146413
429 2 50.4102020218 9.2571627998 6.0377843187
430 2 60.4864534548 10.8000232664 10.3327661549
431 2 54.530731832 9.2571627998 8.7651027963
432 2 56.583628131 10.8000232664 7.2111857056
433 2 58.4335571558 9.2571627998 6.0072985968
434 2 58.5534471973 9.2571627998 8.653923198400001
435 2 56.4637380895 10.8000232664 10.443945752800001
436 1 62.453854782600004 7.714302333100001 10.1925309273
437 1 64.6704026396 6.1714418665 5.958891594600001
438 1 61.6241262979 6.1714418665 7.340824337500001
439 1 68.5073908503 6.1714418665 8.719307712700001
440 1 70.72393870740001 7.714302333100001 10.3650530287
441 1 66.5888623656 7.714302333100001 10.278785771599999
442 1 71.5536671921 6.1714418665 7.337374969800001
443 2 66.5399895226 6.1714418665 8.8595429402
444 2 60.5842678997 7.714302333100001 7.2918795817
445 2 62.6371641987 6.1714418665 11.617347139700001
446 2 64.4870932235 7.714302333100001 10.413460030900001
447 2 64.606983265 7.714302333100001 7.1806999838
448 2 62.5172741572 6.1714418665 8.9707225382
449 2 72.5935255903 7.714302333100001 7.3863197256
450 2 66.6378039674 6.1714418665 11.698041015800001
451 2 68.6907002664 7.714302333100001 10.1441239251
452 2 70.54062929130001 6.1714418665 8.9402368163
453 2 70.66051933279999 6.1714418665 11.5868614179
454 2 68.570810225 7.714302333100001 7.4974993235000005
455 1 62.453854782600004 10.8000232664 10.1925309273
456 1 64.6704026396 9.2571627998 5.958891594600001
457 1 61.6241262979 9.2571627998 7.340824337500001
458 1 65.5001311244 10.8000232664 8.8105981844
459 1 68.5073908503 9.2571627998 8.719307712700001
460 1 70.72393870740001 10.8000232664 10.3650530287
461 1 67.6776623656 10.8000232664 11.7469857716
462 1 71.5536671921 9.2571627998 7.337374969800001
463 2 66.5399895226 9.2571627998 8.8595429402
464 2 60.5842678997 10.8000232664 7.2918795817
465 2 62.6371641987 9.2571627998 11.617347139700001
466 2 64.4870932235 10.8000232664 10.413460030900001
467 2 64.606983265 10.8000232664 7.1806999838
468 2 62.5172741572 9.2571627998 8.9707225382
469 2 72.5935255903 10.8000232664 7.3863197256
470 2 66.6378039674 9.2571627998 11.698041015800001
471 2 68.6907002664 10.8000232664 10.1441239251
472 2 70.54062929130001 9.2571627998 8.9402368163
473 2 70.66051933279999 9.2571627998 11.5868614179
474 2 68.570810225 10.8000232664 7.4974993235000005
475 1 50.3467826472 13.885744199600001 13.138977356600002
476 1 52.5633305042 12.342883733 14.784722672700001
477 1 49.5170541624 12.342883733 16.1666554156
478 1 53.3930589889 13.885744199600001 17.636429262500002
479 1 56.4003187149 12.342883733 17.5451387907
480 1 58.616866571900005 13.885744199600001 13.3114994581
481 1 55.5705902301 13.885744199600001 14.6934322009
482 1 60.5353450567 12.342883733 14.6917060479
483 2 54.4329173871 12.342883733 11.8059893696
484 2 48.4771957642 13.885744199600001 16.1177106598
485 2 50.5300920633 12.342883733 14.563793569100001
486 2 52.3800210881 13.885744199600001 13.359906460300001
487 2 52.4999111296 13.885744199600001 16.0065310618
488 2 50.4102020218 12.342883733 11.9171689675
489 2 60.4864534548 13.885744199600001 16.212150803700002
490 2 54.530731832 12.342883733 14.644487445100001
491 2 56.583628131 13.885744199600001 13.0905703544
492 2 58.4335571558 12.342883733 11.8866832456
493 2 58.5534471973 12.342883733 14.5333078472
494 2 56.4637380895 13.885744199600001 16.3233304016
495 1 50.3467826472 16.9714651329 13.138977356600002
496 1 52.5633305042 15.4286046663 14.784722672700001
497 1 49.5170541624 15.4286046663 16.1666554156
498 1 53.3930589889 16.9714651329 17.636429262500002
499 1 56.4003187149 15.4286046663 17.5451387907
500 1 58.616866571900005 16.9714651329 13.3114994581
501 1 55.5705902301 16.9714651329 14.6934322009
502 1 59.446595056700005 15.4286046663 16.1632060479
503 2 54.4329173871 15.4286046663 11.8059893696
504 2 48.4771957642 16.9714651329 16.1177106598
505 2 50.5300920633 15.4286046663 14.563793569100001
506 2 52.3800210881 16.9714651329 13.359906460300001
507 2 52.4999111296 16.9714651329 16.0065310618
508 2 50.4102020218 15.4286046663 11.9171689675
509 2 60.4864534548 16.9714651329 16.212150803700002
510 2 54.530731832 15.4286046663 14.644487445100001
511 2 56.583628131 16.9714651329 13.0905703544
512 2 58.4335571558 15.4286046663 11.8866832456
513 2 58.5534471973 15.4286046663 14.5333078472
514 2 56.4637380895 16.9714651329 16.3233304016
515 1 62.453854782600004 13.885744199600001 16.0719155761
516 1 64.6704026396 12.342883733 11.838276243400001
517 1 65.5001311244 13.885744199600001 14.6899828332
518 1 68.5073908503 12.342883733 14.598692361500001
519 1 70.72393870740001 13.885744199600001 16.244437677500002
520 1 67.6776623656 13.885744199600001 17.6263704204
521 1 71.5536671921 12.342883733 13.216759618600001
522 2 66.5399895226 12.342883733 14.738927589000001
523 2 60.5842678997 13.885744199600001 13.1712642305
524 2 62.6371641987 12.342883733 17.4967317885
525 2 64.4870932235 13.885744199600001 16.2928446797
526 2 64.606983265 13.885744199600001 13.0600846326
527 2 62.5172741572 12.342883733 14.850107187
528 2 72.5935255903 13.885744199600001 13.2657043744
529 2 66.6378039674 12.342883733 17.5774256646
530 2 68.6907002664 13.885744199600001 16.023508573900003
531 2 70.54062929130001 12.342883733 14.819621465100001
532 2 70.66051933279999 12.342883733 17.466246066700002
533 2 68.570810225 13.885744199600001 13.3768839723
534 1 62.453854782600004 16.9714651329 16.0719155761
535 1 64.6704026396 15.4286046663 11.838276243400001
536 1 61.6241262979 15.4286046663 13.220208986300001
537 1 65.5001311244 16.9714651329 14.6899828332
538 1 68.5073908503 15.4286046663 14.598692361500001
539 1 70.72393870740001 16.9714651329 16.244437677500002
540 1 67.6776623656 16.9714651329 17.6263704204
541 1 71.5536671921 15.4286046663 13.216759618600001
542 2 66.5399895226 15.4286046663 14.738927589000001
543 2 60.5842678997 16.9714651329 13.1712642305
544 2 62.6371641987 15.4286046663 17.4967317885
545 2 64.4870932235 16.9714651329 16.2928446797
546 2 64.606983265 16.9714651329 13.0600846326
547 2 62.5172741572 15.4286046663 14.850107187
548 2 72.5935255903 16.9714651329 13.2657043744
549 2 66.6378039674 15.4286046663 17.5774256646
550 2 68.6907002664 16.9714651329 16.023508573900003
551 2 70.54062929130001 15.4286046663 14.819621465100001
552 2 70.66051933279999 15.4286046663 17.466246066700002
553 2 68.570810225 16.9714651329 13.3768839723
554 1 26.1326383763 7.714302333100001 13.138977356600002
555 1 28.3491862333 6.1714418665 14.784722672700001
556 1 25.3029098915 6.1714418665 16.1666554156
557 1 29.178914718 7.714302333100001 17.636429262500002
558 1 32.186174444 6.1714418665 17.5451387907
559 1 34.402722301 7.714302333100001 13.3114994581
560 1 31.356445959200002 7.714302333100001 14.6934322009
561 1 36.3212007858 6.1714418665 14.6917060479
562 2 30.2187731162 6.1714418665 11.8059893696
563 2 24.2630514933 7.714302333100001 16.1177106598
564 2 26.3159477924 6.1714418665 14.563793569100001
565 2 28.1658768172 7.714302333100001 13.359906460300001
566 2 28.2857668587 7.714302333100001 16.0065310618
567 2 26.1960577509 6.1714418665 11.9171689675
568 2 36.2723091839 7.714302333100001 16.212150803700002
569 2 30.3165875611 6.1714418665 14.644487445100001
570 2 32.369483860100004 7.714302333100001 13.0905703544
571 2 34.2194128849 6.1714418665 11.8866832456
572 2 34.3393029264 6.1714418665 14.5333078472
573 2 32.249593818600005 7.714302333100001 16.3233304016
574 1 26.1326383763 10.8000232664 13.138977356600002
575 1 28.3491862333 9.2571627998 14.784722672700001
576 1 25.3029098915 9.2571627998 16.1666554156
577 1 29.178914718 10.8000232664 17.636429262500002
578 1 32.186174444 9.2571627998 17.5451387907
579 1 34.402722301 10.8000232664 13.3114994581
580 1 31.356445959200002 10.8000232664 14.6934322009
581 1 35.2324507858 9.2571627998 16.1632060479
582 2 30.2187731162 9.2571627998 11.8059893696
583 2 24.2630514933 10.8000232664 16.1177106598
584 2 26.3159477924 9.2571627998 14.563793569100001
585 2 28.1658768172 10.8000232664 13.359906460300001
586 2 28.2857668587 10.8000232664 16.0065310618
587 2 26.1960577509 9.2571627998 11.9171689675
588 2 36.2723091839 10.8000232664 16.212150803700002
589 2 30.3165875611 9.2571627998 14.644487445100001
590 2 32.369483860100004 10.8000232664 13.0905703544
591 2 34.2194128849 9.2571627998 11.8866832456
592 2 34.3393029264 9.2571627998 14.5333078472
593 2 32.249593818600005 10.8000232664 16.3233304016