# LAMMPS data file written by OVITO Basic 3.7.9
5121 atoms
2 atom types
0.0489072224 96.80766986120001 xlo xhi
0.0 23.1429069994 ylo yhi
0.047220072 23.515813911300004 zlo zhi

Masses

1 69.723  # Ga
2 15.9994  # O

Atoms  # atomic

1 1 50.3467826472 7.714302333100001 13.138977356600002
2 1 52.5633305042 6.1714418665 14.784722672700001
3 1 49.5170541624 6.1714418665 16.1666554156
4 1 53.3930589889 7.714302333100001 17.636429262500002
5 1 56.4003187149 6.1714418665 17.5451387907
6 1 58.616866571900005 7.714302333100001 13.3114994581
7 1 55.5705902301 7.714302333100001 14.6934322009
8 1 59.446595056700005 6.1714418665 16.1632060479
9 2 54.4329173871 6.1714418665 11.8059893696
10 2 48.4771957642 7.714302333100001 16.1177106598
11 2 50.5300920633 6.1714418665 14.563793569100001
12 2 52.3800210881 7.714302333100001 13.359906460300001
13 2 52.4999111296 7.714302333100001 16.0065310618
14 2 50.4102020218 6.1714418665 11.9171689675
15 2 60.4864534548 7.714302333100001 16.212150803700002
16 2 54.530731832 6.1714418665 14.644487445100001
17 2 56.583628131 7.714302333100001 13.0905703544
18 2 58.4335571558 6.1714418665 11.8866832456
19 2 58.5534471973 6.1714418665 14.5333078472
20 2 56.4637380895 7.714302333100001 16.3233304016
21 1 50.3467826472 10.8000232664 13.138977356600002
22 1 52.5633305042 9.2571627998 14.784722672700001
23 1 49.5170541624 9.2571627998 16.1666554156
24 1 53.3930589889 10.8000232664 17.636429262500002
25 1 56.4003187149 9.2571627998 17.5451387907
26 1 58.616866571900005 10.8000232664 13.3114994581
27 1 55.5705902301 10.8000232664 14.6934322009
28 1 59.446595056700005 9.2571627998 16.1632060479
29 2 54.4329173871 9.2571627998 11.8059893696
30 2 48.4771957642 10.8000232664 16.1177106598
31 2 50.5300920633 9.2571627998 14.563793569100001
32 2 52.3800210881 10.8000232664 13.359906460300001
33 2 52.4999111296 10.8000232664 16.0065310618
34 2 50.4102020218 9.2571627998 11.9171689675
35 2 60.4864534548 10.8000232664 16.212150803700002
36 2 54.530731832 9.2571627998 14.644487445100001
37 2 56.583628131 10.8000232664 13.0905703544
38 2 58.4335571558 9.2571627998 11.8866832456
39 2 58.5534471973 9.2571627998 14.5333078472
40 2 56.4637380895 10.8000232664 16.3233304016
41 1 63.8704247826 7.2000123331 14.7343455761
42 1 64.6704026396 6.1714418665 11.838276243400001
43 1 61.6241262979 6.1714418665 13.220208986300001
44 1 68.5073908503 6.1714418665 14.598692361500001
45 1 70.72393870740001 7.714302333100001 16.244437677500002
46 1 67.6776623656 7.714302333100001 17.6263704204
47 1 71.5536671921 6.1714418665 13.216759618600001
48 2 66.5399895226 6.1714418665 14.738927589000001
49 2 60.5842678997 7.714302333100001 13.1712642305
50 2 62.6371641987 6.1714418665 17.4967317885
51 2 64.4870932235 7.714302333100001 16.2928446797
52 2 64.606983265 7.714302333100001 13.0600846326
53 2 62.5172741572 6.1714418665 14.850107187
54 2 72.5935255903 7.714302333100001 13.2657043744
55 2 66.6378039674 6.1714418665 17.5774256646
56 2 68.6907002664 7.714302333100001 16.023508573900003
57 2 70.54062929130001 6.1714418665 14.819621465100001
58 2 70.66051933279999 6.1714418665 17.466246066700002
59 2 68.570810225 7.714302333100001 13.3768839723
60 1 62.453854782600004 10.8000232664 16.0719155761
61 1 64.6704026396 9.2571627998 11.838276243400001
62 1 61.6241262979 9.2571627998 13.220208986300001
63 1 65.5001311244 10.8000232664 14.6899828332
64 1 68.5073908503 9.2571627998 14.598692361500001
65 1 70.72393870740001 10.8000232664 16.244437677500002
66 1 67.6776623656 10.8000232664 17.6263704204
67 1 71.5536671921 9.2571627998 13.216759618600001
68 2 66.5399895226 9.2571627998 14.738927589000001
69 2 60.5842678997 10.8000232664 13.1712642305
70 2 62.6371641987 9.2571627998 17.4967317885
71 2 64.4870932235 10.8000232664 16.2928446797
72 2 64.606983265 10.8000232664 13.0600846326
73 2 62.5172741572 9.2571627998 14.850107187
74 2 72.5935255903 10.8000232664 13.2657043744
75 2 66.6378039674 9.2571627998 17.5774256646
76 2 68.6907002664 10.8000232664 16.023508573900003
77 2 70.54062929130001 9.2571627998 14.819621465100001
78 2 70.66051933279999 9.2571627998 17.466246066700002
79 2 68.570810225 10.8000232664 13.3768839723
80 1 26.1326383763 7.714302333100001 7.2595927078
81 1 28.3491862333 6.1714418665 8.9053380239
82 1 25.3029098915 6.1714418665 10.2872707668
83 1 29.178914718 7.714302333100001 11.7570446137
84 1 32.186174444 6.1714418665 11.665754141899999
85 1 34.402722301 7.714302333100001 7.4321148093
86 1 31.356445959200002 7.714302333100001 8.8140475521
87 1 35.2324507858 6.1714418665 10.2838213991
88 2 30.2187731162 6.1714418665 5.9266047208
89 2 24.2630514933 7.714302333100001 10.238326011000002
90 2 26.3159477924 6.1714418665 8.684408920300001
91 2 28.1658768172 7.714302333100001 7.4805218115
92 2 28.2857668587 7.714302333100001 10.127146413
93 2 26.1960577509 6.1714418665 6.0377843187
94 2 36.2723091839 7.714302333100001 10.3327661549
95 2 30.3165875611 6.1714418665 8.7651027963
96 2 32.369483860100004 7.714302333100001 7.2111857056
97 2 34.2194128849 6.1714418665 6.0072985968
98 2 34.3393029264 6.1714418665 8.653923198400001
99 2 32.249593818600005 7.714302333100001 10.443945752800001
100 1 26.1326383763 10.8000232664 7.2595927078
101 1 28.3491862333 9.2571627998 8.9053380239
102 1 25.3029098915 9.2571627998 10.2872707668
103 1 29.178914718 10.8000232664 11.7570446137
104 1 32.186174444 9.2571627998 11.665754141899999
105 1 34.402722301 10.8000232664 7.4321148093
106 1 31.356445959200002 10.8000232664 8.8140475521
107 1 35.2324507858 9.2571627998 10.2838213991
108 2 30.2187731162 9.2571627998 5.9266047208
109 2 24.2630514933 10.8000232664 10.238326011000002
110 2 26.3159477924 9.2571627998 8.684408920300001
111 2 28.1658768172 10.8000232664 7.4805218115
112 2 28.2857668587 10.8000232664 10.127146413
113 2 26.1960577509 9.2571627998 6.0377843187
114 2 36.2723091839 10.8000232664 10.3327661549
115 2 30.3165875611 9.2571627998 8.7651027963
116 2 32.369483860100004 10.8000232664 7.2111857056
117 2 34.2194128849 9.2571627998 6.0072985968
118 2 34.3393029264 9.2571627998 8.653923198400001
119 2 32.249593818600005 10.8000232664 10.443945752800001
120 1 38.2397105117 7.714302333100001 10.1925309273
121 1 40.4562583687 6.1714418665 5.958891594600001
122 1 37.409982027 6.1714418665 7.340824337500001
123 1 44.293246579400005 6.1714418665 8.719307712700001
124 1 46.5097944365 7.714302333100001 10.3650530287
125 1 42.3747180947 7.714302333100001 10.278785771599999
126 1 47.3395229212 6.1714418665 7.337374969800001
127 2 42.3258452517 6.1714418665 8.8595429402
128 2 36.3701236288 7.714302333100001 7.2918795817
129 2 38.4230199278 6.1714418665 11.617347139700001
130 2 40.272948952600004 7.714302333100001 10.413460030900001
131 2 40.3928389941 7.714302333100001 7.1806999838
132 2 38.3031298863 6.1714418665 8.9707225382
133 2 48.3793813194 7.714302333100001 7.3863197256
134 2 42.423659696499996 6.1714418665 11.698041015800001
135 2 44.4765559955 7.714302333100001 10.1441239251
136 2 46.3264850204 6.1714418665 8.9402368163
137 2 46.4463750619 6.1714418665 11.5868614179
138 2 44.356665954099995 7.714302333100001 7.4974993235000005
139 1 38.2397105117 10.8000232664 10.1925309273
140 1 40.4562583687 9.2571627998 5.958891594600001
141 1 37.409982027 9.2571627998 7.340824337500001
142 1 41.2859868535 10.8000232664 8.8105981844
143 1 44.293246579400005 9.2571627998 8.719307712700001
144 1 46.5097944365 10.8000232664 10.3650530287
145 1 43.4635180947 10.8000232664 11.7469857716
146 1 47.3395229212 9.2571627998 7.337374969800001
147 2 42.3258452517 9.2571627998 8.8595429402
148 2 36.3701236288 10.8000232664 7.2918795817
149 2 38.4230199278 9.2571627998 11.617347139700001
150 2 40.272948952600004 10.8000232664 10.413460030900001
151 2 40.3928389941 10.8000232664 7.1806999838
152 2 38.3031298863 9.2571627998 8.9707225382
153 2 48.3793813194 10.8000232664 7.3863197256
154 2 42.423659696499996 9.2571627998 11.698041015800001
155 2 44.4765559955 10.8000232664 10.1441239251
156 2 46.3264850204 9.2571627998 8.9402368163
157 2 46.4463750619 9.2571627998 11.5868614179
158 2 44.356665954099995 10.8000232664 7.4974993235000005
159 1 74.56092691810001 13.885744199600001 13.138977356600002
160 1 76.7774747751 12.342883733 14.784722672700001
161 1 73.73119843330001 12.342883733 16.1666554156
162 1 77.6072032598 13.885744199600001 17.636429262500002
163 1 80.6144629858 12.342883733 17.5451387907
164 1 82.83101084280001 13.885744199600001 13.3114994581
165 1 79.784734501 13.885744199600001 14.6934322009
166 1 84.7494893276 12.342883733 14.6917060479
167 2 78.64706165800001 12.342883733 11.8059893696
168 2 72.69134003510001 13.885744199600001 16.1177106598
169 2 74.74423633420001 12.342883733 14.563793569100001
170 2 76.594165359 13.885744199600001 13.359906460300001
171 2 76.7140554005 13.885744199600001 16.0065310618
172 2 74.62434629270001 12.342883733 11.9171689675
173 2 84.7005977257 13.885744199600001 16.212150803700002
174 2 78.74487610290001 12.342883733 14.644487445100001
175 2 80.7977724019 13.885744199600001 13.0905703544
176 2 82.64770142670001 12.342883733 11.8866832456
177 2 82.76759146820001 12.342883733 14.5333078472
178 2 80.6778823604 13.885744199600001 16.3233304016
179 1 74.56092691810001 16.9714651329 13.138977356600002
180 1 76.7774747751 15.4286046663 14.784722672700001
181 1 73.73119843330001 15.4286046663 16.1666554156
182 1 77.6072032598 16.9714651329 17.636429262500002
183 1 80.6144629858 15.4286046663 17.5451387907
184 1 82.83101084280001 16.9714651329 13.3114994581
185 1 79.784734501 16.9714651329 14.6934322009
186 1 83.66073932760001 15.4286046663 16.1632060479
187 2 78.64706165800001 15.4286046663 11.8059893696
188 2 72.69134003510001 16.9714651329 16.1177106598
189 2 74.74423633420001 15.4286046663 14.563793569100001
190 2 76.594165359 16.9714651329 13.359906460300001
191 2 76.7140554005 16.9714651329 16.0065310618
192 2 74.62434629270001 15.4286046663 11.9171689675
193 2 84.7005977257 16.9714651329 16.212150803700002
194 2 78.74487610290001 15.4286046663 14.644487445100001
195 2 80.7977724019 16.9714651329 13.0905703544
196 2 82.64770142670001 15.4286046663 11.8866832456
197 2 82.76759146820001 15.4286046663 14.5333078472
198 2 80.6778823604 16.9714651329 16.3233304016
199 1 86.66799905350001 13.885744199600001 16.0719155761
200 1 88.8845469105 12.342883733 11.838276243400001
201 1 89.7142753953 13.885744199600001 14.6899828332
202 1 92.7215351212 12.342883733 14.598692361500001
203 1 94.9380829783 13.885744199600001 16.244437677500002
204 1 91.89180663650001 13.885744199600001 17.6263704204
205 1 95.76781146300002 12.342883733 13.216759618600001
206 2 90.7541337935 12.342883733 14.738927589000001
207 2 84.7984121706 13.885744199600001 13.1712642305
208 2 86.85130846960001 12.342883733 17.4967317885
209 2 88.7012374944 13.885744199600001 16.2928446797
210 2 88.8211275359 13.885744199600001 13.0600846326
211 2 86.73141842810001 12.342883733 14.850107187
212 2 96.80766986120001 13.885744199600001 13.2657043744
213 2 90.85194823830001 12.342883733 17.5774256646
214 2 92.90484453730001 13.885744199600001 16.023508573900003
215 2 94.7547735622 12.342883733 14.819621465100001
216 2 94.87466360370001 12.342883733 17.466246066700002
217 2 92.78495449590001 13.885744199600001 13.3768839723
218 1 86.66799905350001 16.9714651329 16.0719155761
219 1 88.8845469105 15.4286046663 11.838276243400001
220 1 85.83827056880001 15.4286046663 13.220208986300001
221 1 89.7142753953 16.9714651329 14.6899828332
222 1 92.7215351212 15.4286046663 14.598692361500001
223 1 94.9380829783 16.9714651329 16.244437677500002
224 1 91.89180663650001 16.9714651329 17.6263704204
225 1 95.76781146300002 15.4286046663 13.216759618600001
226 2 90.7541337935 15.4286046663 14.738927589000001
227 2 84.7984121706 16.9714651329 13.1712642305
228 2 86.85130846960001 15.4286046663 17.4967317885
229 2 88.7012374944 16.9714651329 16.2928446797
230 2 88.8211275359 16.9714651329 13.0600846326
231 2 86.73141842810001 15.4286046663 14.850107187
232 2 96.80766986120001 16.9714651329 13.2657043744
233 2 90.85194823830001 15.4286046663 17.5774256646
234 2 92.90484453730001 16.9714651329 16.023508573900003
235 2 94.7547735622 15.4286046663 14.819621465100001
236 2 94.87466360370001 15.4286046663 17.466246066700002
237 2 92.78495449590001 16.9714651329 13.3768839723
238 1 50.3467785418 13.885743733 13.1389792976
239 2 50.5300885418 12.342883733 14.5637892976
240 2 50.4101985418 12.342883733 11.917169297600001
241 1 49.5170585418 12.342883733 16.1666592976
242 2 48.4771957418 13.885743733 16.1177092976
243 2 50.5300885418 15.428603733000001 14.5637892976
244 2 50.4101985418 15.428603733000001 11.917169297600001
245 1 49.5170585418 15.428603733000001 16.1666592976
246 1 50.3467785418 16.971463733 13.1389792976
247 2 48.4771957418 16.971463733 16.1177092976
248 2 54.4329185418 12.342883733 11.805989397600001
249 2 52.3800185418 13.885743733 13.359909297600002
250 1 52.563328541800004 12.342883733 14.7847192976
251 1 53.3930585418 13.885743733 17.6364292976
252 2 52.4999085418 13.885743733 16.0065292976
253 2 54.4329185418 15.428603733000001 11.805989397600001
254 1 52.563328541800004 15.428603733000001 14.7847192976
255 2 52.3800185418 16.971463733 13.359909297600002
256 1 53.3930585418 16.971463733 17.6364292976
257 2 52.4999085418 16.971463733 16.0065292976
258 1 55.5705885418 13.885743733 14.693429297600002
259 2 54.5307285418 12.342883733 14.6444892976
260 2 56.5836285418 13.885743733 13.0905692976
261 1 56.400318541800004 12.342883733 17.545139297600002
262 2 56.4637385418 13.885743733 16.3233292976
263 2 54.5307285418 15.428603733000001 14.6444892976
264 1 56.400318541800004 15.428603733000001 17.545139297600002
265 1 55.5705885418 16.971463733 14.693429297600002
266 2 56.5836285418 16.971463733 13.0905692976
267 2 56.4637385418 16.971463733 16.3233292976
268 1 58.6168885418 13.885743733 13.311499297600001
269 2 58.4335885418 12.342883733 11.886683297600001
270 2 58.5534885418 12.342883733 14.5333092976
271 1 59.4465885418 12.342883733 16.1632092976
272 2 60.4864885418 13.885743733 16.2121492976
273 2 58.4335885418 15.428603733000001 11.886683297600001
274 2 58.5534885418 15.428603733000001 14.5333092976
275 1 59.4465885418 15.428603733000001 16.1632092976
276 1 58.6168885418 16.971463733 13.311499297600001
277 2 60.4864885418 16.971463733 16.2121492976
278 1 61.6240885418 12.342883733 13.2202092976
279 2 60.5842885418 13.885743733 13.1712592976
280 1 62.4538885418 13.885743733 16.0719192976
281 2 62.6371885418 12.342883733 17.4967292976
282 2 62.5172885418 12.342883733 14.850109297600001
283 1 61.6240885418 15.428603733000001 13.2202092976
284 2 62.6371885418 15.428603733000001 17.4967292976
285 2 62.5172885418 15.428603733000001 14.850109297600001
286 2 60.5842885418 16.971463733 13.1712592976
287 1 62.4538885418 16.971463733 16.0719192976
288 1 64.67038854180001 12.342883733 11.8382761976
289 1 65.5000885418 13.885743733 14.6899792976
290 2 64.6069885418 13.885743733 13.060089297600001
291 2 66.5399885418 12.342883733 14.7389292976
292 2 64.4870885418 13.885743733 16.2928492976
293 1 64.67038854180001 15.428603733000001 11.8382761976
294 2 66.5399885418 15.428603733000001 14.7389292976
295 1 65.5000885418 16.971463733 14.6899792976
296 2 64.6069885418 16.971463733 13.060089297600001
297 2 64.4870885418 16.971463733 16.2928492976
298 1 68.5073885418 12.342883733 14.5986892976
299 2 68.5707885418 13.885743733 13.3768792976
300 1 67.6776885418 13.885743733 17.6263692976
301 2 66.6377885418 12.342883733 17.577429297600002
302 2 68.6906885418 13.885743733 16.0235092976
303 2 66.6377885418 15.428603733000001 17.577429297600002
304 1 67.2894885418 15.942893733000002 16.1132892976
305 2 68.5707885418 16.971463733 13.3768792976
306 1 67.6776885418 16.971463733 17.6263692976
307 2 68.6906885418 16.971463733 16.0235092976
308 1 71.5536885418 12.342883733 13.216759297600001
309 2 72.5934885418 13.885743733 13.2657092976
310 1 70.0305885418 13.885743733 13.9077192976
311 1 70.7239885418 13.885743733 16.2444392976
312 2 70.5405885418 12.342883733 14.819619297600001
313 2 70.66048854179999 12.342883733 17.4662492976
314 1 71.5536885418 15.428603733000001 13.216759297600001
315 2 70.5405885418 15.428603733000001 14.819619297600001
316 2 70.66048854179999 15.428603733000001 17.4662492976
317 2 72.5934885418 16.971463733 13.2657092976
318 1 70.7239885418 16.971463733 16.2444392976
319 1 26.1326342709 7.7143018665000005 13.1389792976
320 2 26.3159442709 6.1714418665 14.5637892976
321 2 26.1960542709 6.1714418665 11.917169297600001
322 1 25.3029142709 6.1714418665 16.1666592976
323 2 24.2630514709 7.7143018665000005 16.1177092976
324 2 26.3159442709 9.2571618665 14.5637892976
325 2 26.1960542709 9.2571618665 11.917169297600001
326 1 25.3029142709 9.2571618665 16.1666592976
327 1 26.1326342709 10.8000218665 13.1389792976
328 2 24.2630514709 10.8000218665 16.1177092976
329 2 30.2187742709 6.1714418665 11.805989397600001
330 2 28.1658742709 7.7143018665000005 13.359909297600002
331 1 28.3491842709 6.1714418665 14.7847192976
332 1 29.178914270900002 7.7143018665000005 17.6364292976
333 2 28.2857642709 7.7143018665000005 16.0065292976
334 2 30.2187742709 9.2571618665 11.805989397600001
335 1 28.3491842709 9.2571618665 14.7847192976
336 2 28.1658742709 10.8000218665 13.359909297600002
337 1 29.178914270900002 10.8000218665 17.6364292976
338 2 28.2857642709 10.8000218665 16.0065292976
339 1 31.3564442709 7.7143018665000005 14.693429297600002
340 2 30.3165842709 6.1714418665 14.6444892976
341 2 32.3694842709 7.7143018665000005 13.0905692976
342 1 32.1861742709 6.1714418665 17.545139297600002
343 2 32.249594270900005 7.7143018665000005 16.3233292976
344 2 30.3165842709 9.2571618665 14.6444892976
345 1 32.1861742709 9.2571618665 17.545139297600002
346 1 31.3564442709 10.8000218665 14.693429297600002
347 2 32.3694842709 10.8000218665 13.0905692976
348 2 32.249594270900005 10.8000218665 16.3233292976
349 1 34.4027442709 7.7143018665000005 13.311499297600001
350 2 34.2194442709 6.1714418665 11.886683297600001
351 2 34.3393442709 6.1714418665 14.5333092976
352 1 35.232444270900004 6.1714418665 16.1632092976
353 2 36.2723442709 7.7143018665000005 16.2121492976
354 2 34.2194442709 9.2571618665 11.886683297600001
355 2 34.3393442709 9.2571618665 14.5333092976
356 1 35.232444270900004 9.2571618665 16.1632092976
357 1 34.4027442709 10.8000218665 13.311499297600001
358 2 36.2723442709 10.8000218665 16.2121492976
359 1 37.4099442709 6.1714418665 13.2202092976
360 2 36.3701442709 7.7143018665000005 13.1712592976
361 1 38.239744270900005 7.7143018665000005 16.0719192976
362 2 38.4230442709 6.1714418665 17.4967292976
363 2 38.3031442709 6.1714418665 14.850109297600001
364 1 37.4099442709 9.2571618665 13.2202092976
365 2 38.4230442709 9.2571618665 17.4967292976
366 2 38.3031442709 9.2571618665 14.850109297600001
367 2 36.3701442709 10.8000218665 13.1712592976
368 1 38.239744270900005 10.8000218665 16.0719192976
369 1 40.4562442709 6.1714418665 11.8382761976
370 1 41.2859442709 7.7143018665000005 14.6899792976
371 2 40.3928442709 7.7143018665000005 13.060089297600001
372 2 42.3258442709 6.1714418665 14.7389292976
373 2 40.2729442709 7.7143018665000005 16.2928492976
374 1 40.4562442709 9.2571618665 11.8382761976
375 2 42.3258442709 9.2571618665 14.7389292976
376 1 41.2859442709 10.8000218665 14.6899792976
377 2 40.3928442709 10.8000218665 13.060089297600001
378 2 40.2729442709 10.8000218665 16.2928492976
379 1 44.293244270900004 6.1714418665 14.5986892976
380 2 44.3566442709 7.7143018665000005 13.3768792976
381 1 43.4635442709 7.7143018665000005 17.6263692976
382 2 42.4236442709 6.1714418665 17.577429297600002
383 2 44.4765442709 7.7143018665000005 16.0235092976
384 2 42.4236442709 9.2571618665 17.577429297600002
385 1 43.075344270900004 9.771451866500001 16.1132892976
386 2 44.3566442709 10.8000218665 13.3768792976
387 1 43.4635442709 10.8000218665 17.6263692976
388 2 44.4765442709 10.8000218665 16.0235092976
389 1 47.3395442709 6.1714418665 13.216759297600001
390 2 48.3793442709 7.7143018665000005 13.2657092976
391 1 45.8164442709 7.7143018665000005 13.9077192976
392 1 46.509844270900004 7.7143018665000005 16.2444392976
393 2 46.3264442709 6.1714418665 14.819619297600001
394 2 46.4463442709 6.1714418665 17.4662492976
395 1 47.3395442709 9.2571618665 13.216759297600001
396 2 46.3264442709 9.2571618665 14.819619297600001
397 2 46.4463442709 9.2571618665 17.4662492976
398 2 48.3793442709 10.8000218665 13.2657092976
399 1 46.509844270900004 10.8000218665 16.2444392976
400 1 74.56092281270001 7.7143018665000005 13.1389792976
401 2 74.7442328127 6.1714418665 14.5637892976
402 2 74.62434281270001 6.1714418665 11.917169297600001
403 1 73.7312028127 6.1714418665 16.1666592976
404 2 72.69134001270001 7.7143018665000005 16.1177092976
405 2 74.7442328127 9.2571618665 14.5637892976
406 2 74.62434281270001 9.2571618665 11.917169297600001
407 1 73.7312028127 9.2571618665 16.1666592976
408 1 74.56092281270001 10.8000218665 13.1389792976
409 2 72.69134001270001 10.8000218665 16.1177092976
410 2 78.64706281270001 6.1714418665 11.805989397600001
411 2 76.5941628127 7.7143018665000005 13.359909297600002
412 1 76.77747281270001 6.1714418665 14.7847192976
413 1 77.60720281270001 7.7143018665000005 17.6364292976
414 2 76.7140528127 7.7143018665000005 16.0065292976
415 2 78.64706281270001 9.2571618665 11.805989397600001
416 1 76.77747281270001 9.2571618665 14.7847192976
417 2 76.5941628127 10.8000218665 13.359909297600002
418 1 77.60720281270001 10.8000218665 17.6364292976
419 2 76.7140528127 10.8000218665 16.0065292976
420 1 79.78473281270001 7.7143018665000005 14.693429297600002
421 2 78.74487281270001 6.1714418665 14.6444892976
422 2 80.7977728127 7.7143018665000005 13.0905692976
423 1 80.61446281270001 6.1714418665 17.545139297600002
424 2 80.6778828127 7.7143018665000005 16.3233292976
425 2 78.74487281270001 9.2571618665 14.6444892976
426 1 80.61446281270001 9.2571618665 17.545139297600002
427 1 79.78473281270001 10.8000218665 14.693429297600002
428 2 80.7977728127 10.8000218665 13.0905692976
429 2 80.6778828127 10.8000218665 16.3233292976
430 1 82.8310328127 7.7143018665000005 13.311499297600001
431 2 82.64773281270001 6.1714418665 11.886683297600001
432 2 82.76763281270001 6.1714418665 14.5333092976
433 1 83.6607328127 6.1714418665 16.1632092976
434 2 84.70063281270001 7.7143018665000005 16.2121492976
435 2 82.64773281270001 9.2571618665 11.886683297600001
436 2 82.76763281270001 9.2571618665 14.5333092976
437 1 83.6607328127 9.2571618665 16.1632092976
438 1 82.8310328127 10.8000218665 13.311499297600001
439 2 84.70063281270001 10.8000218665 16.2121492976
440 1 85.83823281270001 6.1714418665 13.2202092976
441 2 84.79843281270001 7.7143018665000005 13.1712592976
442 1 86.6680328127 7.7143018665000005 16.0719192976
443 2 86.85133281270001 6.1714418665 17.4967292976
444 2 86.7314328127 6.1714418665 14.850109297600001
445 1 85.83823281270001 9.2571618665 13.2202092976
446 2 86.85133281270001 9.2571618665 17.4967292976
447 2 86.7314328127 9.2571618665 14.850109297600001
448 2 84.79843281270001 10.8000218665 13.1712592976
449 1 86.6680328127 10.8000218665 16.0719192976
450 1 88.8845328127 6.1714418665 11.8382761976
451 1 89.7142328127 7.7143018665000005 14.6899792976
452 2 88.8211328127 7.7143018665000005 13.060089297600001
453 2 90.7541328127 6.1714418665 14.7389292976
454 2 88.70123281270001 7.7143018665000005 16.2928492976
455 1 88.8845328127 9.2571618665 11.8382761976
456 2 90.7541328127 9.2571618665 14.7389292976
457 1 89.7142328127 10.8000218665 14.6899792976
458 2 88.8211328127 10.8000218665 13.060089297600001
459 2 88.70123281270001 10.8000218665 16.2928492976
460 1 92.7215328127 6.1714418665 14.5986892976
461 2 92.7849328127 7.7143018665000005 13.3768792976
462 1 91.89183281270002 7.7143018665000005 17.6263692976
463 2 90.8519328127 6.1714418665 17.577429297600002
464 2 92.90483281270001 7.7143018665000005 16.0235092976
465 2 90.8519328127 9.2571618665 17.577429297600002
466 1 91.5036328127 9.771451866500001 16.1132892976
467 2 92.7849328127 10.8000218665 13.3768792976
468 1 91.89183281270002 10.8000218665 17.6263692976
469 2 92.90483281270001 10.8000218665 16.0235092976
470 1 95.76783281270001 6.1714418665 13.216759297600001
471 2 96.8076328127 7.7143018665000005 13.2657092976
472 1 94.24473281270001 7.7143018665000005 13.9077192976
473 1 94.9381328127 7.7143018665000005 16.2444392976
474 2 94.75473281270001 6.1714418665 14.819619297600001
475 2 94.87463281270001 6.1714418665 17.4662492976
476 1 95.76783281270001 9.2571618665 13.216759297600001
477 2 94.75473281270001 9.2571618665 14.819619297600001
478 2 94.87463281270001 9.2571618665 17.4662492976
479 2 96.8076328127 10.8000218665 13.2657092976
480 1 94.9381328127 10.8000218665 16.2444392976
481 1 50.3467785418 13.885743733 7.2595946488
482 2 50.5300885418 12.342883733 8.684404648800001
483 2 50.4101985418 12.342883733 6.037784648800001
484 1 49.5170585418 12.342883733 10.2872746488
485 2 48.4771957418 13.885743733 10.238324648799999
486 2 50.5300885418 15.428603733000001 8.684404648800001
487 2 50.4101985418 15.428603733000001 6.037784648800001
488 1 49.5170585418 15.428603733000001 10.2872746488
489 1 50.3467785418 16.971463733 7.2595946488
490 2 48.4771957418 16.971463733 10.238324648799999
491 2 54.4329185418 12.342883733 5.9266047488
492 2 52.3800185418 13.885743733 7.4805246488
493 1 52.563328541800004 12.342883733 8.9053346488
494 1 53.3930585418 13.885743733 11.7570446488
495 2 52.4999085418 13.885743733 10.127144648800002
496 2 54.4329185418 15.428603733000001 5.9266047488
497 1 52.563328541800004 15.428603733000001 8.9053346488
498 2 52.3800185418 16.971463733 7.4805246488
499 1 53.3930585418 16.971463733 11.7570446488
500 2 52.4999085418 16.971463733 10.127144648800002
501 1 55.5705885418 13.885743733 8.8140446488
502 2 54.5307285418 12.342883733 8.765104648800001
503 2 56.5836285418 13.885743733 7.211184648800001
504 1 56.400318541800004 12.342883733 11.6657546488
505 2 56.4637385418 13.885743733 10.4439446488
506 2 54.5307285418 15.428603733000001 8.765104648800001
507 1 56.400318541800004 15.428603733000001 11.6657546488
508 2 56.5836285418 16.971463733 7.211184648800001
509 1 56.6071085418 16.757173733000002 8.6503546488
510 2 56.4637385418 16.971463733 10.4439446488
511 1 54.9981285418 16.757173733000002 9.2787346488
512 1 58.6168885418 13.885743733 7.432114648800001
513 2 58.4335885418 12.342883733 6.0072986488
514 2 58.5534885418 12.342883733 8.6539246488
515 1 59.4465885418 12.342883733 10.2838246488
516 2 60.4864885418 13.885743733 10.332764648800001
517 2 58.4335885418 15.428603733000001 6.0072986488
518 2 58.5534885418 15.428603733000001 8.6539246488
519 1 59.4465885418 15.428603733000001 10.2838246488
520 1 58.6168885418 16.971463733 7.432114648800001
521 2 60.4864885418 16.971463733 10.332764648800001
522 1 61.6240885418 12.342883733 7.3408246488
523 2 60.5842885418 13.885743733 7.2918746488
524 1 62.4538885418 13.885743733 10.1925346488
525 2 62.6371885418 12.342883733 11.6173446488
526 2 62.5172885418 12.342883733 8.970724648800001
527 1 61.6240885418 15.428603733000001 7.3408246488
528 2 62.6371885418 15.428603733000001 11.6173446488
529 2 62.5172885418 15.428603733000001 8.970724648800001
530 2 60.5842885418 16.971463733 7.2918746488
531 1 62.4538885418 16.971463733 10.1925346488
532 1 64.67038854180001 12.342883733 5.9588915488000005
533 1 65.5000885418 13.885743733 8.8105946488
534 2 64.6069885418 13.885743733 7.180704648800001
535 2 66.5399885418 12.342883733 8.8595446488
536 2 64.4870885418 13.885743733 10.413464648800002
537 1 64.67038854180001 15.428603733000001 5.9588915488000005
538 2 66.5399885418 15.428603733000001 8.8595446488
539 1 65.5000885418 16.971463733 8.8105946488
540 2 64.6069885418 16.971463733 7.180704648800001
541 2 64.4870885418 16.971463733 10.413464648800002
542 1 68.5073885418 12.342883733 8.719304648800001
543 2 68.5707885418 13.885743733 7.4974946488
544 1 67.6776885418 13.885743733 11.746984648800002
545 2 66.6377885418 12.342883733 11.6980446488
546 2 68.6906885418 13.885743733 10.1441246488
547 1 68.5073885418 15.428603733000001 8.719304648800001
548 2 66.6377885418 15.428603733000001 11.6980446488
549 2 68.5707885418 16.971463733 7.4974946488
550 1 67.6776885418 16.971463733 11.746984648800002
551 2 68.6906885418 16.971463733 10.1441246488
552 1 71.5536885418 12.342883733 7.3373746488
553 2 72.5934885418 13.885743733 7.3863246488000005
554 1 70.7239885418 13.885743733 10.365054648800001
555 2 70.5405885418 12.342883733 8.9402346488
556 2 70.66048854179999 12.342883733 11.5868646488
557 1 71.5536885418 15.428603733000001 7.3373746488
558 2 70.5405885418 15.428603733000001 8.9402346488
559 2 70.66048854179999 15.428603733000001 11.5868646488
560 2 72.5934885418 16.971463733 7.3863246488000005
561 1 70.7239885418 16.971463733 10.365054648800001
562 1 50.3467826472 7.714302333100001 7.2595927078
563 1 52.5633305042 6.1714418665 8.9053380239
564 1 49.5170541624 6.1714418665 10.2872707668
565 1 53.3930589889 7.714302333100001 11.7570446137
566 1 56.4003187149 6.1714418665 11.665754141899999
567 1 58.616866571900005 7.714302333100001 7.4321148093
568 1 55.5705902301 7.714302333100001 8.8140475521
569 1 59.446595056700005 6.1714418665 10.2838213991
570 2 54.4329173871 6.1714418665 5.9266047208
571 2 48.4771957642 7.714302333100001 10.238326011000002
572 2 50.5300920633 6.1714418665 8.684408920300001
573 2 52.3800210881 7.714302333100001 7.4805218115
574 2 52.4999111296 7.714302333100001 10.127146413
575 2 50.4102020218 6.1714418665 6.0377843187
576 2 60.4864534548 7.714302333100001 10.3327661549
577 2 54.530731832 6.1714418665 8.7651027963
578 2 56.583628131 7.714302333100001 7.2111857056
579 2 58.4335571558 6.1714418665 6.0072985968
580 2 58.5534471973 6.1714418665 8.653923198400001
581 2 56.4637380895 7.714302333100001 10.443945752800001
582 1 50.3467826472 10.8000232664 7.2595927078
583 1 52.5633305042 9.2571627998 8.9053380239