# LAMMPS data file written by OVITO Basic 3.7.9
5109 atoms
2 atom types
0.0489072224 96.80766986120001 xlo xhi
0.0 23.1429069994 ylo yhi
0.047220072 23.515813911300004 zlo zhi

Masses

1 69.723  # Ga
2 15.9994  # O

Atoms  # atomic

1 1 1.9184941054 13.885744199600001 7.2595927078
2 1 4.1350419624 12.342883733 8.9053380239
3 1 1.0887656206 12.342883733 10.2872707668
4 1 4.9647704471 13.885744199600001 11.7570446137
5 1 7.9720301731 12.342883733 11.665754141899999
6 1 10.1885780301 13.885744199600001 7.4321148093
7 1 7.1423016883 13.885744199600001 8.8140475521
8 1 11.0183065149 12.342883733 10.2838213991
9 2 6.0046288453 12.342883733 5.9266047208
10 2 0.0489072224 13.885744199600001 10.238326011000002
11 2 2.1018035215 12.342883733 8.684408920300001
12 2 3.9517325463 13.885744199600001 7.4805218115
13 2 4.0716225878 13.885744199600001 10.127146413
14 2 1.98191348 12.342883733 6.0377843187
15 2 12.058164913 13.885744199600001 10.3327661549
16 2 6.1024432902 12.342883733 8.7651027963
17 2 8.1553395892 13.885744199600001 7.2111857056
18 2 10.005268614 12.342883733 6.0072985968
19 2 10.1251586555 12.342883733 8.653923198400001
20 2 8.0354495477 13.885744199600001 10.443945752800001
21 1 1.9184941054 16.9714651329 7.2595927078
22 1 4.1350419624 15.4286046663 8.9053380239
23 1 1.0887656206 15.4286046663 10.2872707668
24 1 4.9647704471 16.9714651329 11.7570446137
25 1 7.9720301731 15.4286046663 11.665754141899999
26 1 10.1885780301 16.9714651329 7.4321148093
27 1 7.1423016883 16.9714651329 8.8140475521
28 1 11.0183065149 15.4286046663 10.2838213991
29 2 6.0046288453 15.4286046663 5.9266047208
30 2 0.0489072224 16.9714651329 10.238326011000002
31 2 2.1018035215 15.4286046663 8.684408920300001
32 2 3.9517325463 16.9714651329 7.4805218115
33 2 4.0716225878 16.9714651329 10.127146413
34 2 1.98191348 15.4286046663 6.0377843187
35 2 12.058164913 16.9714651329 10.3327661549
36 2 6.1024432902 15.4286046663 8.7651027963
37 2 8.1553395892 16.9714651329 7.2111857056
38 2 10.005268614 15.4286046663 6.0072985968
39 2 10.1251586555 15.4286046663 8.653923198400001
40 2 8.0354495477 16.9714651329 10.443945752800001
41 1 15.4421362408 13.3714541996 8.8549609273
42 1 16.2421140978 12.342883733 5.958891594600001
43 1 13.1958377561 12.342883733 7.340824337500001
44 1 20.0791023085 12.342883733 8.719307712700001
45 1 22.2956501656 13.885744199600001 10.3650530287
46 1 19.2493738238 13.885744199600001 11.7469857716
47 1 23.1253786503 12.342883733 7.337374969800001
48 2 18.1117009808 12.342883733 8.8595429402
49 2 12.1559793579 13.885744199600001 7.2918795817
50 2 14.2088756569 12.342883733 11.617347139700001
51 2 16.0588046817 13.885744199600001 10.413460030900001
52 2 16.1786947232 13.885744199600001 7.1806999838
53 2 14.0889856154 12.342883733 8.9707225382
54 2 24.1652370485 13.885744199600001 7.3863197256
55 2 18.2095154256 12.342883733 11.698041015800001
56 2 20.2624117246 13.885744199600001 10.1441239251
57 2 22.1123407495 12.342883733 8.9402368163
58 2 22.232230791 12.342883733 11.5868614179
59 2 20.1425216832 13.885744199600001 7.4974993235000005
60 1 14.0255662408 16.9714651329 10.1925309273
61 1 16.2421140978 15.4286046663 5.958891594600001
62 1 13.1958377561 15.4286046663 7.340824337500001
63 1 17.0718425826 16.9714651329 8.8105981844
64 1 20.0791023085 15.4286046663 8.719307712700001
65 1 22.2956501656 16.9714651329 10.3650530287
66 1 19.2493738238 16.9714651329 11.7469857716
67 1 23.1253786503 15.4286046663 7.337374969800001
68 2 18.1117009808 15.4286046663 8.8595429402
69 2 12.1559793579 16.9714651329 7.2918795817
70 2 14.2088756569 15.4286046663 11.617347139700001
71 2 16.0588046817 16.9714651329 10.413460030900001
72 2 16.1786947232 16.9714651329 7.1806999838
73 2 14.0889856154 15.4286046663 8.9707225382
74 2 24.1652370485 16.9714651329 7.3863197256
75 2 18.2095154256 15.4286046663 11.698041015800001
76 2 20.2624117246 16.9714651329 10.1441239251
77 2 22.1123407495 15.4286046663 8.9402368163
78 2 22.232230791 15.4286046663 11.5868614179
79 2 20.1425216832 16.9714651329 7.4974993235000005
80 1 26.1326383763 7.714302333100001 7.2595927078
81 1 28.3491862333 6.1714418665 8.9053380239
82 1 25.3029098915 6.1714418665 10.2872707668
83 1 29.178914718 7.714302333100001 11.7570446137
84 1 32.186174444 6.1714418665 11.665754141899999
85 1 34.402722301 7.714302333100001 7.4321148093
86 1 31.356445959200002 7.714302333100001 8.8140475521
87 1 35.2324507858 6.1714418665 10.2838213991
88 2 30.2187731162 6.1714418665 5.9266047208
89 2 24.2630514933 7.714302333100001 10.238326011000002
90 2 26.3159477924 6.1714418665 8.684408920300001
91 2 28.1658768172 7.714302333100001 7.4805218115
92 2 28.2857668587 7.714302333100001 10.127146413
93 2 26.1960577509 6.1714418665 6.0377843187
94 2 36.2723091839 7.714302333100001 10.3327661549
95 2 30.3165875611 6.1714418665 8.7651027963
96 2 32.369483860100004 7.714302333100001 7.2111857056
97 2 34.2194128849 6.1714418665 6.0072985968
98 2 34.3393029264 6.1714418665 8.653923198400001
99 2 32.249593818600005 7.714302333100001 10.443945752800001
100 1 26.1326383763 10.8000232664 7.2595927078
101 1 28.3491862333 9.2571627998 8.9053380239
102 1 25.3029098915 9.2571627998 10.2872707668
103 1 29.178914718 10.8000232664 11.7570446137
104 1 32.186174444 9.2571627998 11.665754141899999
105 1 34.402722301 10.8000232664 7.4321148093
106 1 31.356445959200002 10.8000232664 8.8140475521
107 1 35.2324507858 9.2571627998 10.2838213991
108 2 30.2187731162 9.2571627998 5.9266047208
109 2 24.2630514933 10.8000232664 10.238326011000002
110 2 26.3159477924 9.2571627998 8.684408920300001
111 2 28.1658768172 10.8000232664 7.4805218115
112 2 28.2857668587 10.8000232664 10.127146413
113 2 26.1960577509 9.2571627998 6.0377843187
114 2 36.2723091839 10.8000232664 10.3327661549
115 2 30.3165875611 9.2571627998 8.7651027963
116 2 32.369483860100004 10.8000232664 7.2111857056
117 2 34.2194128849 9.2571627998 6.0072985968
118 2 34.3393029264 9.2571627998 8.653923198400001
119 2 32.249593818600005 10.8000232664 10.443945752800001
120 1 39.656280511700004 7.2000123331 8.8549609273
121 1 40.4562583687 6.1714418665 5.958891594600001
122 1 37.409982027 6.1714418665 7.340824337500001
123 1 44.293246579400005 6.1714418665 8.719307712700001
124 1 46.5097944365 7.714302333100001 10.3650530287
125 1 43.4635180947 7.714302333100001 11.7469857716
126 1 47.3395229212 6.1714418665 7.337374969800001
127 2 42.3258452517 6.1714418665 8.8595429402
128 2 36.3701236288 7.714302333100001 7.2918795817
129 2 38.4230199278 6.1714418665 11.617347139700001
130 2 40.272948952600004 7.714302333100001 10.413460030900001
131 2 40.3928389941 7.714302333100001 7.1806999838
132 2 38.3031298863 6.1714418665 8.9707225382
133 2 48.3793813194 7.714302333100001 7.3863197256
134 2 42.423659696499996 6.1714418665 11.698041015800001
135 2 44.4765559955 7.714302333100001 10.1441239251
136 2 46.3264850204 6.1714418665 8.9402368163
137 2 46.4463750619 6.1714418665 11.5868614179
138 2 44.356665954099995 7.714302333100001 7.4974993235000005
139 1 38.2397105117 10.8000232664 10.1925309273
140 1 40.4562583687 9.2571627998 5.958891594600001
141 1 37.409982027 9.2571627998 7.340824337500001
142 1 41.2859868535 10.8000232664 8.8105981844
143 1 44.293246579400005 9.2571627998 8.719307712700001
144 1 46.5097944365 10.8000232664 10.3650530287
145 1 43.4635180947 10.8000232664 11.7469857716
146 1 47.3395229212 9.2571627998 7.337374969800001
147 2 42.3258452517 9.2571627998 8.8595429402
148 2 36.3701236288 10.8000232664 7.2918795817
149 2 38.4230199278 9.2571627998 11.617347139700001
150 2 40.272948952600004 10.8000232664 10.413460030900001
151 2 40.3928389941 10.8000232664 7.1806999838
152 2 38.3031298863 9.2571627998 8.9707225382
153 2 48.3793813194 10.8000232664 7.3863197256
154 2 42.423659696499996 9.2571627998 11.698041015800001
155 2 44.4765559955 10.8000232664 10.1441239251
156 2 46.3264850204 9.2571627998 8.9402368163
157 2 46.4463750619 9.2571627998 11.5868614179
158 2 44.356665954099995 10.8000232664 7.4974993235000005
159 1 74.56092691810001 7.714302333100001 7.2595927078
160 1 76.7774747751 6.1714418665 8.9053380239
161 1 73.73119843330001 6.1714418665 10.2872707668
162 1 77.6072032598 7.714302333100001 11.7570446137
163 1 80.6144629858 6.1714418665 11.665754141899999
164 1 82.83101084280001 7.714302333100001 7.4321148093
165 1 79.784734501 7.714302333100001 8.8140475521
166 1 83.66073932760001 6.1714418665 10.2838213991
167 2 78.64706165800001 6.1714418665 5.9266047208
168 2 72.69134003510001 7.714302333100001 10.238326011000002
169 2 74.74423633420001 6.1714418665 8.684408920300001
170 2 76.594165359 7.714302333100001 7.4805218115
171 2 76.7140554005 7.714302333100001 10.127146413
172 2 74.62434629270001 6.1714418665 6.0377843187
173 2 84.7005977257 7.714302333100001 10.3327661549
174 2 78.74487610290001 6.1714418665 8.7651027963
175 2 80.7977724019 7.714302333100001 7.2111857056
176 2 82.64770142670001 6.1714418665 6.0072985968
177 2 82.76759146820001 6.1714418665 8.653923198400001
178 2 80.6778823604 7.714302333100001 10.443945752800001
179 1 74.56092691810001 10.8000232664 7.2595927078
180 1 76.7774747751 9.2571627998 8.9053380239
181 1 73.73119843330001 9.2571627998 10.2872707668
182 1 77.6072032598 10.8000232664 11.7570446137
183 1 80.6144629858 9.2571627998 11.665754141899999
184 1 82.83101084280001 10.8000232664 7.4321148093
185 1 79.784734501 10.8000232664 8.8140475521
186 1 83.66073932760001 9.2571627998 10.2838213991
187 2 78.64706165800001 9.2571627998 5.9266047208
188 2 72.69134003510001 10.8000232664 10.238326011000002
189 2 74.74423633420001 9.2571627998 8.684408920300001
190 2 76.594165359 10.8000232664 7.4805218115
191 2 76.7140554005 10.8000232664 10.127146413
192 2 74.62434629270001 9.2571627998 6.0377843187
193 2 84.7005977257 10.8000232664 10.3327661549
194 2 78.74487610290001 9.2571627998 8.7651027963
195 2 80.7977724019 10.8000232664 7.2111857056
196 2 82.64770142670001 9.2571627998 6.0072985968
197 2 82.76759146820001 9.2571627998 8.653923198400001
198 2 80.6778823604 10.8000232664 10.443945752800001
199 1 88.0845690535 7.2000123331 8.8549609273
200 1 88.8845469105 6.1714418665 5.958891594600001
201 1 85.83827056880001 6.1714418665 7.340824337500001
202 1 92.7215351212 6.1714418665 8.719307712700001
203 1 94.9380829783 7.714302333100001 10.3650530287
204 1 91.89180663650001 7.714302333100001 11.7469857716
205 1 95.76781146300002 6.1714418665 7.337374969800001
206 2 90.7541337935 6.1714418665 8.8595429402
207 2 84.7984121706 7.714302333100001 7.2918795817
208 2 86.85130846960001 6.1714418665 11.617347139700001
209 2 88.7012374944 7.714302333100001 10.413460030900001
210 2 88.8211275359 7.714302333100001 7.1806999838
211 2 86.73141842810001 6.1714418665 8.9707225382
212 2 96.80766986120001 7.714302333100001 7.3863197256
213 2 90.85194823830001 6.1714418665 11.698041015800001
214 2 92.90484453730001 7.714302333100001 10.1441239251
215 2 94.7547735622 6.1714418665 8.9402368163
216 2 94.87466360370001 6.1714418665 11.5868614179
217 2 92.78495449590001 7.714302333100001 7.4974993235000005
218 1 86.66799905350001 10.8000232664 10.1925309273
219 1 88.8845469105 9.2571627998 5.958891594600001
220 1 85.83827056880001 9.2571627998 7.340824337500001
221 1 89.7142753953 10.8000232664 8.8105981844
222 1 92.7215351212 9.2571627998 8.719307712700001
223 1 94.9380829783 10.8000232664 10.3650530287
224 1 91.89180663650001 10.8000232664 11.7469857716
225 1 95.76781146300002 9.2571627998 7.337374969800001
226 2 90.7541337935 9.2571627998 8.8595429402
227 2 84.7984121706 10.8000232664 7.2918795817
228 2 86.85130846960001 9.2571627998 11.617347139700001
229 2 88.7012374944 10.8000232664 10.413460030900001
230 2 88.8211275359 10.8000232664 7.1806999838
231 2 86.73141842810001 9.2571627998 8.9707225382
232 2 96.80766986120001 10.8000232664 7.3863197256
233 2 90.85194823830001 9.2571627998 11.698041015800001
234 2 92.90484453730001 10.8000232664 10.1441239251
235 2 94.7547735622 9.2571627998 8.9402368163
236 2 94.87466360370001 9.2571627998 11.5868614179
237 2 92.78495449590001 10.8000232664 7.4974993235000005
238 1 74.56092691810001 13.885744199600001 13.138977356600002
239 1 76.7774747751 12.342883733 14.784722672700001
240 1 73.73119843330001 12.342883733 16.1666554156
241 1 77.6072032598 13.885744199600001 17.636429262500002
242 1 80.6144629858 12.342883733 17.5451387907
243 1 82.83101084280001 13.885744199600001 13.3114994581
244 1 79.784734501 13.885744199600001 14.6934322009
245 1 83.66073932760001 12.342883733 16.1632060479
246 2 78.64706165800001 12.342883733 11.8059893696
247 2 72.69134003510001 13.885744199600001 16.1177106598
248 2 74.74423633420001 12.342883733 14.563793569100001
249 2 76.594165359 13.885744199600001 13.359906460300001
250 2 76.7140554005 13.885744199600001 16.0065310618
251 2 74.62434629270001 12.342883733 11.9171689675
252 2 84.7005977257 13.885744199600001 16.212150803700002
253 2 78.74487610290001 12.342883733 14.644487445100001
254 2 80.7977724019 13.885744199600001 13.0905703544
255 2 82.64770142670001 12.342883733 11.8866832456
256 2 82.76759146820001 12.342883733 14.5333078472
257 2 80.6778823604 13.885744199600001 16.3233304016
258 1 74.56092691810001 16.9714651329 13.138977356600002
259 1 76.7774747751 15.4286046663 14.784722672700001
260 1 73.73119843330001 15.4286046663 16.1666554156
261 1 77.6072032598 16.9714651329 17.636429262500002
262 1 80.6144629858 15.4286046663 17.5451387907
263 1 82.83101084280001 16.9714651329 13.3114994581
264 1 79.784734501 16.9714651329 14.6934322009
265 1 83.66073932760001 15.4286046663 16.1632060479
266 2 78.64706165800001 15.4286046663 11.8059893696
267 2 72.69134003510001 16.9714651329 16.1177106598
268 2 74.74423633420001 15.4286046663 14.563793569100001
269 2 76.594165359 16.9714651329 13.359906460300001
270 2 76.7140554005 16.9714651329 16.0065310618
271 2 74.62434629270001 15.4286046663 11.9171689675
272 2 84.7005977257 16.9714651329 16.212150803700002
273 2 78.74487610290001 15.4286046663 14.644487445100001
274 2 80.7977724019 16.9714651329 13.0905703544
275 2 82.64770142670001 15.4286046663 11.8866832456
276 2 82.76759146820001 15.4286046663 14.5333078472
277 2 80.6778823604 16.9714651329 16.3233304016
278 1 86.66799905350001 13.885744199600001 16.0719155761
279 1 88.8845469105 12.342883733 11.838276243400001
280 1 85.83827056880001 12.342883733 13.220208986300001
281 1 92.7215351212 12.342883733 14.598692361500001
282 1 94.9380829783 13.885744199600001 16.244437677500002
283 1 90.80300663650002 13.885744199600001 16.1581704204
284 1 95.76781146300002 12.342883733 13.216759618600001
285 2 90.7541337935 12.342883733 14.738927589000001
286 2 84.7984121706 13.885744199600001 13.1712642305
287 2 86.85130846960001 12.342883733 17.4967317885
288 2 88.7012374944 13.885744199600001 16.2928446797
289 2 88.8211275359 13.885744199600001 13.0600846326
290 2 86.73141842810001 12.342883733 14.850107187
291 2 96.80766986120001 13.885744199600001 13.2657043744
292 2 90.85194823830001 12.342883733 17.5774256646
293 2 92.90484453730001 13.885744199600001 16.023508573900003
294 2 94.7547735622 12.342883733 14.819621465100001
295 2 94.87466360370001 12.342883733 17.466246066700002
296 2 92.78495449590001 13.885744199600001 13.3768839723
297 1 86.66799905350001 16.9714651329 16.0719155761
298 1 88.8845469105 15.4286046663 11.838276243400001
299 1 85.83827056880001 15.4286046663 13.220208986300001
300 1 89.7142753953 16.9714651329 14.6899828332
301 1 92.7215351212 15.4286046663 14.598692361500001
302 1 94.9380829783 16.9714651329 16.244437677500002
303 1 91.89180663650001 16.9714651329 17.6263704204
304 1 95.76781146300002 15.4286046663 13.216759618600001
305 2 90.7541337935 15.4286046663 14.738927589000001
306 2 84.7984121706 16.9714651329 13.1712642305
307 2 86.85130846960001 15.4286046663 17.4967317885
308 2 88.7012374944 16.9714651329 16.2928446797
309 2 88.8211275359 16.9714651329 13.0600846326
310 2 86.73141842810001 15.4286046663 14.850107187
311 2 96.80766986120001 16.9714651329 13.2657043744
312 2 90.85194823830001 15.4286046663 17.5774256646
313 2 92.90484453730001 16.9714651329 16.023508573900003
314 2 94.7547735622 15.4286046663 14.819621465100001
315 2 94.87466360370001 15.4286046663 17.466246066700002
316 2 92.78495449590001 16.9714651329 13.3768839723
317 1 50.3467826472 13.885744199600001 13.138977356600002
318 1 52.5633305042 12.342883733 14.784722672700001
319 1 49.5170541624 12.342883733 16.1666554156
320 1 53.3930589889 13.885744199600001 17.636429262500002
321 1 56.4003187149 12.342883733 17.5451387907
322 1 58.616866571900005 13.885744199600001 13.3114994581
323 1 55.5705902301 13.885744199600001 14.6934322009
324 1 59.446595056700005 12.342883733 16.1632060479
325 2 54.4329173871 12.342883733 11.8059893696
326 2 48.4771957642 13.885744199600001 16.1177106598
327 2 50.5300920633 12.342883733 14.563793569100001
328 2 52.3800210881 13.885744199600001 13.359906460300001
329 2 52.4999111296 13.885744199600001 16.0065310618
330 2 50.4102020218 12.342883733 11.9171689675
331 2 60.4864534548 13.885744199600001 16.212150803700002
332 2 54.530731832 12.342883733 14.644487445100001
333 2 56.583628131 13.885744199600001 13.0905703544
334 2 58.4335571558 12.342883733 11.8866832456
335 2 58.5534471973 12.342883733 14.5333078472
336 2 56.4637380895 13.885744199600001 16.3233304016
337 1 50.3467826472 16.9714651329 13.138977356600002
338 1 52.5633305042 15.4286046663 14.784722672700001
339 1 49.5170541624 15.4286046663 16.1666554156
340 1 53.3930589889 16.9714651329 17.636429262500002
341 1 56.4003187149 15.4286046663 17.5451387907
342 1 58.616866571900005 16.9714651329 13.3114994581
343 1 55.5705902301 16.9714651329 14.6934322009
344 1 59.446595056700005 15.4286046663 16.1632060479
345 2 54.4329173871 15.4286046663 11.8059893696
346 2 48.4771957642 16.9714651329 16.1177106598
347 2 50.5300920633 15.4286046663 14.563793569100001
348 2 52.3800210881 16.9714651329 13.359906460300001
349 2 52.4999111296 16.9714651329 16.0065310618
350 2 50.4102020218 15.4286046663 11.9171689675
351 2 60.4864534548 16.9714651329 16.212150803700002
352 2 54.530731832 15.4286046663 14.644487445100001
353 2 56.583628131 16.9714651329 13.0905703544
354 2 58.4335571558 15.4286046663 11.8866832456
355 2 58.5534471973 15.4286046663 14.5333078472
356 2 56.4637380895 16.9714651329 16.3233304016
357 1 62.453854782600004 13.885744199600001 16.0719155761
358 1 64.6704026396 12.342883733 11.838276243400001
359 1 61.6241262979 12.342883733 13.220208986300001
360 1 68.5073908503 12.342883733 14.598692361500001
361 1 70.72393870740001 13.885744199600001 16.244437677500002
362 1 66.5888623656 13.885744199600001 16.1581704204
363 1 71.5536671921 12.342883733 13.216759618600001
364 2 66.5399895226 12.342883733 14.738927589000001
365 2 60.5842678997 13.885744199600001 13.1712642305
366 2 62.6371641987 12.342883733 17.4967317885
367 2 64.4870932235 13.885744199600001 16.2928446797
368 2 64.606983265 13.885744199600001 13.0600846326
369 2 62.5172741572 12.342883733 14.850107187
370 2 72.5935255903 13.885744199600001 13.2657043744
371 2 66.6378039674 12.342883733 17.5774256646
372 2 68.6907002664 13.885744199600001 16.023508573900003
373 2 70.54062929130001 12.342883733 14.819621465100001
374 2 70.66051933279999 12.342883733 17.466246066700002
375 2 68.570810225 13.885744199600001 13.3768839723
376 1 62.453854782600004 16.9714651329 16.0719155761
377 1 64.6704026396 15.4286046663 11.838276243400001
378 1 61.6241262979 15.4286046663 13.220208986300001
379 1 65.5001311244 16.9714651329 14.6899828332
380 1 68.5073908503 15.4286046663 14.598692361500001
381 1 70.72393870740001 16.9714651329 16.244437677500002
382 1 67.6776623656 16.9714651329 17.6263704204
383 1 71.5536671921 15.4286046663 13.216759618600001
384 2 66.5399895226 15.4286046663 14.738927589000001
385 2 60.5842678997 16.9714651329 13.1712642305
386 2 62.6371641987 15.4286046663 17.4967317885
387 2 64.4870932235 16.9714651329 16.2928446797
388 2 64.606983265 16.9714651329 13.0600846326
389 2 62.5172741572 15.4286046663 14.850107187
390 2 72.5935255903 16.9714651329 13.2657043744
391 2 66.6378039674 15.4286046663 17.5774256646
392 2 68.6907002664 16.9714651329 16.023508573900003
393 2 70.54062929130001 15.4286046663 14.819621465100001
394 2 70.66051933279999 15.4286046663 17.466246066700002
395 2 68.570810225 16.9714651329 13.3768839723
396 1 1.9184941054 7.714302333100001 13.138977356600002
397 1 4.1350419624 6.1714418665 14.784722672700001
398 1 1.0887656206 6.1714418665 16.1666554156
399 1 4.9647704471 7.714302333100001 17.636429262500002
400 1 7.9720301731 6.1714418665 17.5451387907
401 1 10.1885780301 7.714302333100001 13.3114994581
402 1 7.1423016883 7.714302333100001 14.6934322009
403 1 11.0183065149 6.1714418665 16.1632060479
404 2 6.0046288453 6.1714418665 11.8059893696
405 2 0.0489072224 7.714302333100001 16.1177106598
406 2 2.1018035215 6.1714418665 14.563793569100001
407 2 3.9517325463 7.714302333100001 13.359906460300001
408 2 4.0716225878 7.714302333100001 16.0065310618
409 2 1.98191348 6.1714418665 11.9171689675
410 2 12.058164913 7.714302333100001 16.212150803700002
411 2 6.1024432902 6.1714418665 14.644487445100001
412 2 8.1553395892 7.714302333100001 13.0905703544
413 2 10.005268614 6.1714418665 11.8866832456
414 2 10.1251586555 6.1714418665 14.5333078472
415 2 8.0354495477 7.714302333100001 16.3233304016
416 1 1.9184941054 10.8000232664 13.138977356600002
417 1 4.1350419624 9.2571627998 14.784722672700001
418 1 1.0887656206 9.2571627998 16.1666554156
419 1 4.9647704471 10.8000232664 17.636429262500002
420 1 7.9720301731 9.2571627998 17.5451387907
421 1 10.1885780301 10.8000232664 13.3114994581
422 1 7.1423016883 10.8000232664 14.6934322009
423 1 11.0183065149 9.2571627998 16.1632060479
424 2 6.0046288453 9.2571627998 11.8059893696
425 2 0.0489072224 10.8000232664 16.1177106598
426 2 2.1018035215 9.2571627998 14.563793569100001
427 2 3.9517325463 10.8000232664 13.359906460300001
428 2 4.0716225878 10.8000232664 16.0065310618
429 2 1.98191348 9.2571627998 11.9171689675
430 2 12.058164913 10.8000232664 16.212150803700002
431 2 6.1024432902 9.2571627998 14.644487445100001
432 2 8.1553395892 10.8000232664 13.0905703544
433 2 10.005268614 9.2571627998 11.8866832456
434 2 10.1251586555 9.2571627998 14.5333078472
435 2 8.0354495477 10.8000232664 16.3233304016
436 1 14.0255662408 7.714302333100001 16.0719155761
437 1 16.2421140978 6.1714418665 11.838276243400001
438 1 13.1958377561 6.1714418665 13.220208986300001
439 1 20.0791023085 6.1714418665 14.598692361500001
440 1 22.2956501656 7.714302333100001 16.244437677500002
441 1 18.1605738238 7.714302333100001 16.1581704204
442 1 23.1253786503 6.1714418665 13.216759618600001
443 2 18.1117009808 6.1714418665 14.738927589000001
444 2 12.1559793579 7.714302333100001 13.1712642305
445 2 14.2088756569 6.1714418665 17.4967317885
446 2 16.0588046817 7.714302333100001 16.2928446797
447 2 16.1786947232 7.714302333100001 13.0600846326
448 2 14.0889856154 6.1714418665 14.850107187
449 2 24.1652370485 7.714302333100001 13.2657043744
450 2 18.2095154256 6.1714418665 17.5774256646
451 2 20.2624117246 7.714302333100001 16.023508573900003
452 2 22.1123407495 6.1714418665 14.819621465100001
453 2 22.232230791 6.1714418665 17.466246066700002
454 2 20.1425216832 7.714302333100001 13.3768839723
455 1 14.0255662408 10.8000232664 16.0719155761
456 1 16.2421140978 9.2571627998 11.838276243400001
457 1 13.1958377561 9.2571627998 13.220208986300001
458 1 17.0718425826 10.8000232664 14.6899828332
459 1 20.0791023085 9.2571627998 14.598692361500001
460 1 22.2956501656 10.8000232664 16.244437677500002
461 1 19.2493738238 10.8000232664 17.6263704204
462 1 23.1253786503 9.2571627998 13.216759618600001
463 2 18.1117009808 9.2571627998 14.738927589000001
464 2 12.1559793579 10.8000232664 13.1712642305
465 2 14.2088756569 9.2571627998 17.4967317885
466 2 16.0588046817 10.8000232664 16.2928446797
467 2 16.1786947232 10.8000232664 13.0600846326
468 2 14.0889856154 9.2571627998 14.850107187
469 2 24.1652370485 10.8000232664 13.2657043744
470 2 18.2095154256 9.2571627998 17.5774256646
471 2 20.2624117246 10.8000232664 16.023508573900003
472 2 22.1123407495 9.2571627998 14.819621465100001
473 2 22.232230791 9.2571627998 17.466246066700002
474 2 20.1425216832 10.8000232664 13.3768839723
475 1 1.9184941054 13.885744199600001 13.138977356600002
476 1 4.1350419624 12.342883733 14.784722672700001
477 1 1.0887656206 12.342883733 16.1666554156
478 1 4.9647704471 13.885744199600001 17.636429262500002
479 1 7.9720301731 12.342883733 17.5451387907
480 1 10.1885780301 13.885744199600001 13.3114994581
481 1 7.1423016883 13.885744199600001 14.6934322009
482 1 11.0183065149 12.342883733 16.1632060479
483 2 6.0046288453 12.342883733 11.8059893696
484 2 0.0489072224 13.885744199600001 16.1177106598
485 2 2.1018035215 12.342883733 14.563793569100001
486 2 3.9517325463 13.885744199600001 13.359906460300001
487 2 4.0716225878 13.885744199600001 16.0065310618
488 2 1.98191348 12.342883733 11.9171689675
489 2 12.058164913 13.885744199600001 16.212150803700002
490 2 6.1024432902 12.342883733 14.644487445100001
491 2 8.1553395892 13.885744199600001 13.0905703544
492 2 10.005268614 12.342883733 11.8866832456
493 2 10.1251586555 12.342883733 14.5333078472
494 2 8.0354495477 13.885744199600001 16.3233304016
495 1 1.9184941054 16.9714651329 13.138977356600002
496 1 4.1350419624 15.4286046663 14.784722672700001
497 1 1.0887656206 15.4286046663 16.1666554156
498 1 4.9647704471 16.9714651329 17.636429262500002
499 1 7.9720301731 15.4286046663 17.5451387907
500 1 10.1885780301 16.9714651329 13.3114994581
501 1 7.1423016883 16.9714651329 14.6934322009
502 1 11.0183065149 15.4286046663 16.1632060479
503 2 6.0046288453 15.4286046663 11.8059893696
504 2 0.0489072224 16.9714651329 16.1177106598
505 2 2.1018035215 15.4286046663 14.563793569100001
506 2 3.9517325463 16.9714651329 13.359906460300001
507 2 4.0716225878 16.9714651329 16.0065310618
508 2 1.98191348 15.4286046663 11.9171689675
509 2 12.058164913 16.9714651329 16.212150803700002
510 2 6.1024432902 15.4286046663 14.644487445100001
511 2 8.1553395892 16.9714651329 13.0905703544
512 2 10.005268614 15.4286046663 11.8866832456
513 2 10.1251586555 15.4286046663 14.5333078472
514 2 8.0354495477 16.9714651329 16.3233304016
515 1 14.0255662408 13.885744199600001 16.0719155761
516 1 16.2421140978 12.342883733 11.838276243400001
517 1 13.1958377561 12.342883733 13.220208986300001
518 1 20.0791023085 12.342883733 14.598692361500001
519 1 22.2956501656 13.885744199600001 16.244437677500002
520 1 18.1605738238 13.885744199600001 16.1581704204
521 1 23.1253786503 12.342883733 13.216759618600001
522 2 18.1117009808 12.342883733 14.738927589000001
523 2 12.1559793579 13.885744199600001 13.1712642305
524 2 14.2088756569 12.342883733 17.4967317885
525 2 16.0588046817 13.885744199600001 16.2928446797
526 2 16.1786947232 13.885744199600001 13.0600846326
527 2 14.0889856154 12.342883733 14.850107187
528 2 24.1652370485 13.885744199600001 13.2657043744
529 2 18.2095154256 12.342883733 17.5774256646
530 2 20.2624117246 13.885744199600001 16.023508573900003
531 2 22.1123407495 12.342883733 14.819621465100001
532 2 22.232230791 12.342883733 17.466246066700002
533 2 20.1425216832 13.885744199600001 13.3768839723
534 1 14.0255662408 16.9714651329 16.0719155761
535 1 16.2421140978 15.4286046663 11.838276243400001
536 1 13.1958377561 15.4286046663 13.220208986300001
537 1 17.0718425826 16.9714651329 14.6899828332
538 1 20.0791023085 15.4286046663 14.598692361500001
539 1 22.2956501656 16.9714651329 16.244437677500002
540 1 19.2493738238 16.9714651329 17.6263704204
541 1 23.1253786503 15.4286046663 13.216759618600001
542 2 18.1117009808 15.4286046663 14.738927589000001
543 2 12.1559793579 16.9714651329 13.1712642305
544 2 14.2088756569 15.4286046663 17.4967317885
545 2 16.0588046817 16.9714651329 16.2928446797
546 2 16.1786947232 16.9714651329 13.0600846326
547 2 14.0889856154 15.4286046663 14.850107187
548 2 24.1652370485 16.9714651329 13.2657043744
549 2 18.2095154256 15.4286046663 17.5774256646
550 2 20.2624117246 16.9714651329 16.023508573900003
551 2 22.1123407495 15.4286046663 14.819621465100001
552 2 22.232230791 15.4286046663 17.466246066700002
553 2 20.1425216832 16.9714651329 13.3768839723
554 1 74.56092691810001 13.885744199600001 7.2595927078
555 1 76.7774747751 12.342883733 8.9053380239
556 1 73.73119843330001 12.342883733 10.2872707668
557 1 77.6072032598 13.885744199600001 11.7570446137
558 1 80.6144629858 12.342883733 11.665754141899999
559 1 82.83101084280001 13.885744199600001 7.4321148093
560 1 79.784734501 13.885744199600001 8.8140475521
561 1 84.7494893276 12.342883733 8.8123213991
562 2 78.64706165800001 12.342883733 5.9266047208
563 2 72.69134003510001 13.885744199600001 10.238326011000002
564 2 74.74423633420001 12.342883733 8.684408920300001
565 2 76.594165359 13.885744199600001 7.4805218115
566 2 76.7140554005 13.885744199600001 10.127146413
567 2 74.62434629270001 12.342883733 6.0377843187
568 2 84.7005977257 13.885744199600001 10.3327661549
569 2 78.74487610290001 12.342883733 8.7651027963
570 2 80.7977724019 13.885744199600001 7.2111857056
571 2 82.64770142670001 12.342883733 6.0072985968
572 2 82.76759146820001 12.342883733 8.653923198400001
573 2 80.6778823604 13.885744199600001 10.443945752800001
574 1 74.56092691810001 16.9714651329 7.2595927078
575 1 76.7774747751 15.4286046663 8.9053380239
576 1 73.73119843330001 15.4286046663 10.2872707668
577 1 77.6072032598 16.9714651329 11.7570446137
578 1 80.6144629858 15.4286046663 11.665754141899999
579 1 82.83101084280001 16.9714651329 7.4321148093
580 1 79.784734501 16.9714651329 8.8140475521
581 1 83.66073932760001 15.4286046663 10.2838213991
582 2 78.64706165800001 15.4286046663 5.9266047208
583 2 72.69134003510001 16.9714651329 10.238326011000002
584 2 74.74423633420001 15.4286046663 8.684408920300001
585 2 76.594165359 16.9714651329 7.4805218115
586 2 76.7140554005 16.9714651329 10.127146413